  &FCI NORB= 10,NELEC= 10,MS2=  0,
  ORBSYM= 1, 1, 1, 1, 1, 1, 1, 1, 1, 1,
  ISYM=0
 &END
    0.93243764898        1    1    1    1
   -0.99531307627E-03    2    1    1    1
    0.28202315137E-01    2    1    2    1
    0.83477887721        2    2    1    1
   -0.83995689976E-03    2    2    2    1
    0.85320145699        2    2    2    2
    0.47090218581E-03    3    1    1    1
    0.53250910187E-02    3    1    2    1
   -0.53820243203E-02    3    1    2    2
    0.25776686337E-01    3    1    3    1
   -0.20876604483E-01    3    2    1    1
    0.29373124601E-02    3    2    2    1
   -0.10037550204E-01    3    2    2    2
   -0.23708031073E-04    3    2    3    1
    0.33766370552E-01    3    2    3    2
    0.84795776884        3    3    1    1
   -0.10703701103E-02    3    3    2    1
    0.79226591973        3    3    2    2
    0.34739609091E-03    3    3    3    1
   -0.95453653149E-02    3    3    3    2
    0.86890335372        3    3    3    3
    0.10332726853E-03    4    1    1    1
    0.33732327369E-02    4    1    2    1
   -0.13513246845E-01    4    1    2    2
    0.43836222156E-02    4    1    3    1
    0.55671892998E-02    4    1    3    2
    0.13523933260E-01    4    1    3    3
    0.33762952313E-01    4    1    4    1
   -0.26138148110E-02    4    2    1    1
    0.69337489496E-02    4    2    2    1
    0.36671907655E-02    4    2    2    2
    0.25990257322E-02    4    2    3    1
   -0.38006108433E-04    4    2    3    2
    0.25112403645E-02    4    2    3    3
    0.22237089070E-03    4    2    4    1
    0.31618283482E-01    4    2    4    2
   -0.81610231372E-02    4    3    1    1
   -0.82004176345E-02    4    3    2    1
    0.39840224079E-03    4    3    2    2
   -0.68936558199E-02    4    3    3    1
    0.11533588187E-03    4    3    3    2
    0.29664968318E-03    4    3    3    3
   -0.32365141137E-02    4    3    4    1
   -0.68816192170E-03    4    3    4    2
    0.32209382629E-01    4    3    4    3
    0.82346873216        4    4    1    1
   -0.10852305809E-02    4    4    2    1
    0.78748401978        4    4    2    2
    0.65859773389E-02    4    4    3    1
   -0.11063054525E-01    4    4    3    2
    0.79605451621        4    4    3    3
    0.14329085610E-03    4    4    4    1
    0.37010376558E-02    4    4    4    2
    0.95676494687E-04    4    4    4    3
    0.85232340196        4    4    4    4
    0.62241022685E-03    5    1    1    1
   -0.79646956906E-03    5    1    2    1
    0.37730743771E-02    5    1    2    2
    0.11421057864E-02    5    1    3    1
    0.86872032768E-02    5    1    3    2
   -0.61539622567E-02    5    1    3    3
   -0.17852305299E-03    5    1    4    1
   -0.12155384426E-01    5    1    4    2
   -0.61998460840E-02    5    1    4    3
    0.33934254435E-02    5    1    4    4
    0.41200319633E-01    5    1    5    1
    0.90448516232E-03    5    2    1    1
   -0.16648698775E-02    5    2    2    1
   -0.61378655473E-03    5    2    2    2
   -0.45519462223E-02    5    2    3    1
    0.56559706932E-02    5    2    3    2
    0.89823492278E-02    5    2    3    3
    0.54318944966E-02    5    2    4    1
   -0.19726710540E-02    5    2    4    2
    0.30864684707E-02    5    2    4    3
   -0.11568236797E-01    5    2    4    4
   -0.32155685968E-03    5    2    5    1
    0.29313227880E-01    5    2    5    2
   -0.14409298200E-02    5    3    1    1
   -0.43434324840E-02    5    3    2    1
   -0.10468955441E-01    5    3    2    2
    0.34392059337E-02    5    3    3    1
   -0.48642343682E-02    5    3    3    2
    0.83425285298E-03    5    3    3    3
    0.26161758996E-02    5    3    4    1
   -0.37181484007E-02    5    3    4    2
    0.21746558265E-02    5    3    4    3
    0.13956149084E-01    5    3    4    4
    0.31361413900E-03    5    3    5    1
   -0.66277379954E-02    5    3    5    2
    0.32694441498E-01    5    3    5    3
    0.62064620162E-03    5    4    1    1
    0.71640362916E-02    5    4    2    1
    0.40521193263E-02    5    4    2    2
    0.38195288049E-02    5    4    3    1
    0.71037300402E-03    5    4    3    2
   -0.40033691536E-02    5    4    3    3
   -0.15439248553E-02    5    4    4    1
    0.54589995059E-02    5    4    4    2
   -0.65977076371E-02    5    4    4    3
    0.22810573310E-03    5    4    4    4
   -0.62046286730E-04    5    4    5    1
   -0.32343200112E-02    5    4    5    2
   -0.42487897677E-02    5    4    5    3
    0.25398063428E-01    5    4    5    4
    0.84365011869        5    5    1    1
   -0.18534135163E-03    5    5    2    1
    0.82659261819        5    5    2    2
   -0.40709548900E-03    5    5    3    1
    0.24744485841E-02    5    5    3    2
    0.82832593254        5    5    3    3
    0.26097435732E-03    5    5    4    1
    0.99096106237E-02    5    5    4    2
    0.84328076081E-02    5    5    4    3
    0.83363155939        5    5    4    4
    0.60459420599E-03    5    5    5    1
   -0.61039650882E-03    5    5    5    2
    0.76784481954E-03    5    5    5    3
    0.26506682612E-03    5    5    5    4
    0.91973481103        5    5    5    5
    0.67818922061E-02    6    1    1    1
    0.15755970979E-04    6    1    2    1
    0.59167864098E-02    6    1    2    2
   -0.39985149362E-04    6    1    3    1
   -0.16293740994E-03    6    1    3    2
    0.60044860555E-02    6    1    3    3
    0.84776950375E-05    6    1    4    1
   -0.57020674508E-04    6    1    4    2
   -0.11728122878E-03    6    1    4    3
    0.56230063060E-02    6    1    4    4
    0.13897680565E-03    6    1    5    1
    0.55254990720E-04    6    1    5    2
   -0.79125884871E-04    6    1    5    3
    0.16368978693E-04    6    1    5    4
    0.60241733382E-02    6    1    5    5
    0.29259717254E-03    6    1    6    1
    0.36709790715E-03    6    2    1    1
    0.95614281371E-04    6    2    2    1
    0.37695373964E-03    6    2    2    2
   -0.70090490443E-04    6    2    3    1
   -0.19127957927E-04    6    2    3    2
    0.32637381442E-03    6    2    3    3
   -0.30285931550E-04    6    2    4    1
   -0.64777631005E-05    6    2    4    2
   -0.58938055875E-05    6    2    4    3
    0.24894914257E-03    6    2    4    4
    0.65646522407E-05    6    2    5    1
    0.78194058971E-04    6    2    5    2
   -0.43327678692E-04    6    2    5    3
   -0.11272532907E-04    6    2    5    4
    0.31871688116E-03    6    2    5    5
    0.37695446194E-05    6    2    6    1
    0.15278617172E-03    6    2    6    2
   -0.66778546791E-03    6    3    1    1
   -0.71707422527E-04    6    3    2    1
   -0.62430737651E-03    6    3    2    2
    0.13727584702E-03    6    3    3    1
    0.10093136985E-04    6    3    3    2
   -0.63426535990E-03    6    3    3    3
   -0.13473782026E-04    6    3    4    1
   -0.17422644382E-05    6    3    4    2
    0.40161674491E-04    6    3    4    3
   -0.48719781872E-03    6    3    4    4
   -0.10575414605E-04    6    3    5    1
   -0.30949778273E-04    6    3    5    2
    0.11327405686E-03    6    3    5    3
   -0.34784707448E-04    6    3    5    4
   -0.58594345028E-03    6    3    5    5
   -0.84643501534E-05    6    3    6    1
    0.66242164407E-04    6    3    6    2
    0.12338091049E-03    6    3    6    3
    0.12430017328E-03    6    4    1    1
   -0.45298304301E-04    6    4    2    1
   -0.35587853850E-05    6    4    2    2
   -0.21342170669E-04    6    4    3    1
    0.41470271641E-04    6    4    3    2
    0.24757921515E-03    6    4    3    3
    0.24985406533E-03    6    4    4    1
   -0.30138467766E-04    6    4    4    2
    0.28064974619E-05    6    4    4    3
    0.91425644542E-04    6    4    4    4
    0.45101693666E-05    6    4    5    1
    0.82170166152E-04    6    4    5    2
    0.31079250865E-04    6    4    5    3
   -0.31943142628E-04    6    4    5    4
    0.11390680969E-03    6    4    5    5
    0.22383353779E-05    6    4    6    1
    0.55250775270E-04    6    4    6    2
    0.45911291930E-04    6    4    6    3
    0.11519701841E-03    6    4    6    4
    0.99472665122E-03    6    5    1    1
   -0.92577481477E-06    6    5    2    1
    0.99246173699E-03    6    5    2    2
    0.37024955039E-05    6    5    3    1
    0.87545201878E-04    6    5    3    2
    0.89812139467E-03    6    5    3    3
   -0.22132336103E-06    6    5    4    1
   -0.94163128311E-04    6    5    4    2
   -0.53462674252E-04    6    5    4    3
    0.93619525827E-03    6    5    4    4
    0.37180320225E-03    6    5    5    1
    0.17448003017E-04    6    5    5    2
   -0.32089747892E-04    6    5    5    3
    0.73348072337E-05    6    5    5    4
    0.10444200639E-02    6    5    5    5
   -0.15892677393E-04    6    5    6    1
   -0.21266957118E-04    6    5    6    2
    0.29390818153E-04    6    5    6    3
   -0.47395649629E-05    6    5    6    4
    0.90152816794E-04    6    5    6    5
    0.19870857953        6    6    1    1
   -0.51326444322E-03    6    6    2    1
    0.19680329093        6    6    2    2
    0.69047677105E-03    6    6    3    1
    0.73940550995E-04    6    6    3    2
    0.19684327338        6    6    3    3
   -0.92881557499E-04    6    6    4    1
    0.12783931476E-03    6    6    4    2
    0.61849766469E-03    6    6    4    3
    0.19993725629        6    6    4    4
    0.11093937772E-02    6    6    5    1
   -0.20215076179E-02    6    6    5    2
    0.28474108198E-02    6    6    5    3
   -0.40099109341E-03    6    6    5    4
    0.20164909317        6    6    5    5
    0.67772994776E-02    6    6    6    1
    0.33884084470E-03    6    6    6    2
   -0.63066356815E-03    6    6    6    3
    0.12283235237E-03    6    6    6    4
    0.11123178752E-02    6    6    6    5
    0.93253168157        6    6    6    6
    0.60314758679E-03    7    1    1    1
    0.78754814459E-04    7    1    2    1
    0.55035736823E-03    7    1    2    2
   -0.10908373055E-03    7    1    3    1
    0.77435466686E-04    7    1    3    2
    0.44592969003E-03    7    1    3    3
    0.18498522335E-04    7    1    4    1
   -0.16241619894E-03    7    1    4    2
   -0.11135619538E-03    7    1    4    3
    0.43507166869E-03    7    1    4    4
    0.39533974867E-03    7    1    5    1
    0.22150501024E-04    7    1    5    2
   -0.32850408121E-04    7    1    5    3
    0.62528710539E-05    7    1    5    4
    0.42379946486E-03    7    1    5    5
   -0.21974046505E-04    7    1    6    1
    0.44032963552E-05    7    1    6    2
   -0.82422515099E-05    7    1    6    3
    0.58795818302E-06    7    1    6    4
    0.88230926024E-05    7    1    6    5
    0.51408579453E-03    7    1    6    6
    0.95900227163E-04    7    1    7    1
    0.25002952721E-02    7    2    1    1
    0.95998145998E-04    7    2    2    1
    0.24340669453E-02    7    2    2    2
   -0.22854923093E-04    7    2    3    1
   -0.12459793244E-03    7    2    3    2
    0.23928298676E-02    7    2    3    3
   -0.63700127088E-04    7    2    4    1
    0.90930196816E-04    7    2    4    2
   -0.35069154477E-04    7    2    4    3
    0.20703150815E-02    7    2    4    4
   -0.44052895806E-04    7    2    5    1
    0.23814681299E-03    7    2    5    2
   -0.15274452825E-03    7    2    5    3
    0.65365217750E-04    7    2    5    4
    0.23673308346E-02    7    2    5    5
    0.79513690102E-04    7    2    6    1
   -0.40799005831E-04    7    2    6    2
   -0.43588782716E-04    7    2    6    3
   -0.15534227735E-04    7    2    6    4
    0.64874325879E-06    7    2    6    5
    0.22611530346E-02    7    2    6    6
   -0.11916680601E-04    7    2    7    1
    0.13753821387E-03    7    2    7    2
   -0.35837585879E-02    7    3    1    1
   -0.31674316887E-04    7    3    2    1
   -0.33493246223E-02    7    3    2    2
    0.83444250890E-04    7    3    3    1
    0.12609757597E-03    7    3    3    2
   -0.35878133486E-02    7    3    3    3
   -0.73468478655E-04    7    3    4    1
   -0.80300226982E-04    7    3    4    2
    0.28605644925E-04    7    3    4    3
   -0.29587221742E-02    7    3    4    4
    0.58755909755E-04    7    3    5    1
   -0.15603207510E-03    7    3    5    2
    0.35980274606E-03    7    3    5    3
   -0.16292011039E-04    7    3    5    4
   -0.33963681325E-02    7    3    5    5
   -0.11410359293E-03    7    3    6    1
   -0.18371819479E-04    7    3    6    2
    0.55119899473E-05    7    3    6    3
    0.37989553471E-06    7    3    6    4
   -0.92596232315E-06    7    3    6    5
   -0.32453402420E-02    7    3    6    6
    0.17749987622E-04    7    3    7    1
   -0.42383408044E-04    7    3    7    2
    0.14701263741E-03    7    3    7    3
    0.59590416266E-03    7    4    1    1
   -0.14498658356E-03    7    4    2    1
    0.65620849626E-03    7    4    2    2
   -0.12898651880E-03    7    4    3    1
   -0.46492958574E-04    7    4    3    2
    0.50666493109E-03    7    4    3    3
   -0.50526720075E-04    7    4    4    1
    0.31949303913E-04    7    4    4    2
   -0.10531168056E-04    7    4    4    3
    0.50803510263E-03    7    4    4    4
   -0.66927009985E-05    7    4    5    1
    0.47681186157E-04    7    4    5    2
   -0.25828889536E-04    7    4    5    3
    0.98047576365E-04    7    4    5    4
    0.57695391951E-03    7    4    5    5
    0.19726551416E-04    7    4    6    1
    0.14362620819E-03    7    4    6    2
    0.11227178119E-03    7    4    6    3
    0.98438309983E-04    7    4    6    4
   -0.53643332316E-06    7    4    6    5
    0.54899680724E-03    7    4    6    6
   -0.45171776214E-05    7    4    7    1
   -0.78477574321E-04    7    4    7    2
   -0.29025804900E-04    7    4    7    3
    0.36169757256E-03    7    4    7    4
    0.58677866348E-02    7    5    1    1
    0.37621894082E-04    7    5    2    1
    0.58257080731E-02    7    5    2    2
   -0.50696774651E-04    7    5    3    1
    0.90255018408E-04    7    5    3    2
    0.58022415860E-02    7    5    3    3
    0.11407860340E-04    7    5    4    1
    0.14194901738E-03    7    5    4    2
    0.57085360356E-04    7    5    4    3
    0.54713929277E-02    7    5    4    4
    0.56496471546E-05    7    5    5    1
    0.18053432901E-03    7    5    5    2
   -0.26134785717E-03    7    5    5    3
    0.49536764462E-04    7    5    5    4
    0.65686561744E-02    7    5    5    5
    0.12250424626E-03    7    5    6    1
    0.70906360591E-05    7    5    6    2
   -0.15949923365E-04    7    5    6    3
    0.17978120756E-05    7    5    6    4
    0.26868112191E-04    7    5    6    5
    0.58046838068E-02    7    5    6    6
    0.12666161987E-04    7    5    7    1
    0.31818224822E-04    7    5    7    2
   -0.44512238239E-04    7    5    7    3
    0.54535320151E-05    7    5    7    4
    0.21346883217E-03    7    5    7    5
    0.16319878242E-02    7    6    1    1
    0.21905849306E-04    7    6    2    1
    0.16549327832E-02    7    6    2    2
   -0.30450594878E-04    7    6    3    1
    0.39900795703E-04    7    6    3    2
    0.16305132087E-02    7    6    3    3
    0.49315016800E-05    7    6    4    1
    0.42368904558E-05    7    6    4    2
    0.18317252131E-04    7    6    4    3
    0.17017853707E-02    7    6    4    4
    0.48713617693E-04    7    6    5    1
   -0.16826897302E-04    7    6    5    2
    0.22602387217E-04    7    6    5    3
   -0.81781824367E-06    7    6    5    4
    0.19297734920E-02    7    6    5    5
    0.93515307353E-04    7    6    6    1
    0.11988473882E-03    7    6    6    2
   -0.17331890942E-03    7    6    6    3
    0.30634750490E-04    7    6    6    4
    0.40255423382E-03    7    6    6    5
    0.21721481985E-03    7    6    6    6
    0.36390385187E-03    7    6    7    1
    0.31100805306E-04    7    6    7    2
   -0.51936907063E-04    7    6    7    3
    0.92930600560E-05    7    6    7    4
    0.30971326831E-04    7    6    7    5
    0.41189784504E-01    7    6    7    6
    0.20188536182        7    7    1    1
   -0.55785803989E-03    7    7    2    1
    0.19995024597        7    7    2    2
    0.75677301618E-03    7    7    3    1
    0.12099408983E-03    7    7    3    2
    0.19996078535        7    7    3    3
   -0.99374521675E-04    7    7    4    1
    0.13460597729E-03    7    7    4    2
    0.65012403764E-03    7    7    4    3
    0.20320126201        7    7    4    4
    0.13723234504E-02    7    7    5    1
   -0.20495783392E-02    7    7    5    2
    0.28806016296E-02    7    7    5    3
   -0.40044027545E-03    7    7    5    4
    0.20524299616        7    7    5    5
    0.59995397092E-02    7    7    6    1
    0.32363847203E-03    7    7    6    2
   -0.59326158970E-03    7    7    6    3
    0.11165494059E-03    7    7    6    4
    0.85958692450E-03    7    7    6    5
    0.84359186721        7    7    6    6
    0.52316513079E-03    7    7    7    1
    0.25122337319E-02    7    7    7    2
   -0.36042470024E-02    7    7    7    3
    0.60967361332E-03    7    7    7    4
    0.65321199077E-02    7    7    7    5
    0.17534306872E-03    7    7    7    6
    0.91956514771        7    7    7    7
    0.40605746303E-03    8    1    1    1
   -0.74431288893E-04    8    1    2    1
    0.20583993324E-03    8    1    2    2
    0.14959869533E-03    8    1    3    1
    0.65764272538E-04    8    1    3    2
    0.47788080853E-03    8    1    3    3
    0.24831451305E-03    8    1    4    1
   -0.68823274744E-04    8    1    4    2
   -0.45976521625E-04    8    1    4    3
    0.40468575823E-03    8    1    4    4
    0.17088315708E-03    8    1    5    1
    0.11800785512E-04    8    1    5    2
    0.64446421781E-04    8    1    5    3
   -0.34820617993E-04    8    1    5    4
    0.35919291052E-03    8    1    5    5
   -0.59970571578E-06    8    1    6    1
    0.47429885800E-04    8    1    6    2
    0.40164264312E-04    8    1    6    3
    0.44522711952E-04    8    1    6    4
    0.75629922295E-05    8    1    6    5
    0.43462969704E-03    8    1    6    6
   -0.24414682621E-04    8    1    7    1
   -0.96439552565E-05    8    1    7    2
   -0.82982388569E-06    8    1    7    3
    0.64935226675E-04    8    1    7    4
    0.94353868082E-05    8    1    7    5
    0.23912921622E-04    8    1    7    6
    0.34459950494E-03    8    1    7    7
    0.86493251793E-04    8    1    8    1
   -0.16852651214E-02    8    2    1    1
    0.11527971858E-03    8    2    2    1
   -0.16027136480E-02    8    2    2    2
    0.48344682883E-04    8    2    3    1
    0.24345992225E-03    8    2    3    2
   -0.14074641870E-02    8    2    3    3
    0.10545710422E-03    8    2    4    1
    0.24636598391E-03    8    2    4    2
    0.21539408477E-04    8    2    4    3
   -0.14484644349E-02    8    2    4    4
   -0.11115034261E-03    8    2    5    1
    0.10669605228E-03    8    2    5    2
   -0.55371428323E-04    8    2    5    3
    0.53149075108E-04    8    2    5    4
   -0.14026894019E-02    8    2    5    5
   -0.52435878085E-04    8    2    6    1
   -0.37734421167E-04    8    2    6    2
   -0.14714979676E-04    8    2    6    3
   -0.25584260957E-04    8    2    6    4
    0.71494604684E-05    8    2    6    5
   -0.16988950747E-02    8    2    6    6
    0.14886150288E-04    8    2    7    1
   -0.22449595935E-04    8    2    7    2
    0.41769387830E-04    8    2    7    3
   -0.48703191860E-04    8    2    7    4
   -0.26066952802E-04    8    2    7    5
   -0.22538189582E-04    8    2    7    6
   -0.14723295827E-02    8    2    7    7
   -0.32626861165E-05    8    2    8    1
    0.10459660957E-03    8    2    8    2
    0.47784265464E-02    8    3    1    1
   -0.13488723848E-03    8    3    2    1
    0.44573727964E-02    8    3    2    2
   -0.81296526782E-04    8    3    3    1
   -0.10687256540E-03    8    3    3    2
    0.49910348771E-02    8    3    3    3
    0.66234442041E-04    8    3    4    1
    0.27821459855E-04    8    3    4    2
    0.25878712250E-03    8    3    4    3
    0.44624146438E-02    8    3    4    4
   -0.93520156121E-04    8    3    5    1
    0.87543676820E-04    8    3    5    2
    0.10794925474E-03    8    3    5    3
   -0.11971300732E-03    8    3    5    4
    0.48629740877E-02    8    3    5    5
    0.16190124983E-03    8    3    6    1
    0.46254801400E-04    8    3    6    2
    0.14032855914E-04    8    3    6    3
    0.16620346334E-04    8    3    6    4
   -0.58627022936E-05    8    3    6    5
    0.48178112100E-02    8    3    6    6
   -0.11389026385E-04    8    3    7    1
    0.42213257986E-04    8    3    7    2
   -0.10163660054E-03    8    3    7    3
    0.75895875167E-04    8    3    7    4
    0.84756196398E-04    8    3    7    5
   -0.62513414305E-04    8    3    7    6
    0.48105709340E-02    8    3    7    7
    0.49844999808E-04    8    3    8    1
   -0.64082930148E-04    8    3    8    2
    0.22169024839E-03    8    3    8    3
    0.37831353196E-02    8    4    1    1
    0.32684359676E-04    8    4    2    1
    0.36591470911E-02    8    4    2    2
    0.62329637224E-04    8    4    3    1
   -0.89833496872E-05    8    4    3    2
    0.36977698888E-02    8    4    3    3
    0.16869301858E-05    8    4    4    1
   -0.12142952309E-04    8    4    4    2
    0.15863228617E-03    8    4    4    3
    0.38991200318E-02    8    4    4    4
    0.55429974871E-04    8    4    5    1
   -0.67499167212E-04    8    4    5    2
    0.67849344107E-04    8    4    5    3
    0.90100610296E-04    8    4    5    4
    0.40459058015E-02    8    4    5    5
    0.17565083017E-03    8    4    6    1
   -0.43442719444E-04    8    4    6    2
   -0.51246562468E-04    8    4    6    3
   -0.43688025714E-04    8    4    6    4
    0.94578022752E-06    8    4    6    5
    0.37873602047E-02    8    4    6    6
   -0.10831042080E-04    8    4    7    1
    0.84400328454E-04    8    4    7    2
   -0.74916629334E-04    8    4    7    3
   -0.11724738431E-03    8    4    7    4
    0.11813627426E-03    8    4    7    5
    0.68562774853E-04    8    4    7    6
    0.40675104947E-02    8    4    7    7
   -0.16419153673E-04    8    4    8    1
   -0.19184216319E-04    8    4    8    2
    0.82670591328E-04    8    4    8    3
    0.30830893141E-03    8    4    8    4
    0.28276555828E-02    8    5    1    1
   -0.11920554055E-03    8    5    2    1
    0.27876208697E-02    8    5    2    2
   -0.41349530791E-04    8    5    3    1
   -0.40818192402E-04    8    5    3    2
    0.26892326498E-02    8    5    3    3
   -0.37219474489E-04    8    5    4    1
    0.23646249846E-04    8    5    4    2
    0.49083191090E-04    8    5    4    3
    0.28858848296E-02    8    5    4    4
    0.36677855383E-04    8    5    5    1
   -0.89075205470E-04    8    5    5    2
    0.23877196805E-03    8    5    5    3
    0.76847789520E-04    8    5    5    4
    0.31800889135E-02    8    5    5    5
    0.92148068663E-04    8    5    6    1
    0.93016922949E-04    8    5    6    2
    0.66666942370E-04    8    5    6    3
    0.61725769778E-04    8    5    6    4
   -0.79777860359E-05    8    5    6    5
    0.31237914034E-02    8    5    6    6
   -0.33439831188E-05    8    5    7    1
   -0.22949034166E-04    8    5    7    2
   -0.57149796199E-04    8    5    7    3
    0.17920487469E-03    8    5    7    4
    0.40716735159E-04    8    5    7    5
   -0.72162131294E-04    8    5    7    6
    0.29673850715E-02    8    5    7    7
    0.48259427492E-04    8    5    8    1
   -0.94606301083E-04    8    5    8    2
    0.14659299334E-03    8    5    8    3
    0.15001173328E-04    8    5    8    4
    0.22867858705E-03    8    5    8    5
   -0.49370832521E-03    8    6    1    1
    0.11462706654E-03    8    6    2    1
   -0.56626184050E-03    8    6    2    2
    0.10651457226E-03    8    6    3    1
    0.71130077592E-04    8    6    3    2
   -0.41920520473E-03    8    6    3    3
    0.12700747004E-03    8    6    4    1
    0.17820442267E-04    8    6    4    2
   -0.83199983107E-04    8    6    4    3
   -0.52352758099E-03    8    6    4    4
    0.36007969985E-04    8    6    5    1
    0.32298691612E-04    8    6    5    2
   -0.15730556112E-04    8    6    5    3
    0.84076975338E-04    8    6    5    4
   -0.50588365912E-03    8    6    5    5
    0.52141097390E-04    8    6    6    1
   -0.18869098702E-04    8    6    6    2
    0.18025838079E-03    8    6    6    3
    0.23202105466E-03    8    6    6    4
    0.12432523227E-03    8    6    6    5
    0.83221053353E-03    8    6    6    6
    0.14623526149E-04    8    6    7    1
    0.67577162252E-04    8    6    7    2
    0.84667618698E-04    8    6    7    3
   -0.83994528118E-04    8    6    7    4
    0.44761924379E-04    8    6    7    5
    0.99476165155E-03    8    6    7    6
    0.86096192103E-04    8    6    7    7
    0.22014951458E-03    8    6    8    1
   -0.80795534581E-04    8    6    8    2
   -0.81364151567E-04    8    6    8    3
    0.31703889403E-04    8    6    8    4
    0.45866175047E-04    8    6    8    5
    0.28495417156E-01    8    6    8    6
   -0.19126228663E-02    8    7    1    1
    0.15799807696E-03    8    7    2    1
   -0.18259369472E-02    8    7    2    2
    0.74636297744E-04    8    7    3    1
    0.11031783922E-03    8    7    3    2
   -0.18814804137E-02    8    7    3    3
    0.46194698689E-04    8    7    4    1
    0.80502446693E-04    8    7    4    2
   -0.10633863670E-03    8    7    4    3
   -0.19723991874E-02    8    7    4    4
    0.19049018863E-04    8    7    5    1
    0.66978031234E-05    8    7    5    2
   -0.12292918002E-03    8    7    5    3
    0.15657942511E-03    8    7    5    4
   -0.18624062165E-02    8    7    5    5
    0.51167841941E-04    8    7    6    1
   -0.17319519668E-04    8    7    6    2
    0.44823708742E-04    8    7    6    3
   -0.43909435451E-04    8    7    6    4
    0.30210838252E-04    8    7    6    5
   -0.11169087718E-02    8    7    6    6
    0.15629571915E-04    8    7    7    1
   -0.12510055881E-03    8    7    7    2
    0.18836367585E-03    8    7    7    3
    0.82634693593E-04    8    7    7    4
    0.22739005873E-03    8    7    7    5
    0.42593994239E-03    8    7    7    6
    0.86344686699E-03    8    7    7    7
    0.40682515783E-04    8    7    8    1
    0.10257592248E-03    8    7    8    2
   -0.37061847534E-04    8    7    8    3
    0.48116378087E-04    8    7    8    4
    0.29885296391E-03    8    7    8    5
    0.29667810406E-02    8    7    8    6
    0.29735663618E-01    8    7    8    7
    0.19762558821        8    8    1    1
   -0.30342156712E-03    8    8    2    1
    0.19564598094        8    8    2    2
    0.90262049360E-03    8    8    3    1
    0.10077846181E-04    8    8    3    2
    0.19577509909        8    8    3    3
   -0.27017879390E-04    8    8    4    1
    0.20849247176E-03    8    8    4    2
    0.52669953481E-03    8    8    4    3
    0.19908141722        8    8    4    4
    0.11239171309E-02    8    8    5    1
   -0.21418672290E-02    8    8    5    2
    0.28367439352E-02    8    8    5    3
   -0.16036384060E-03    8    8    5    4
    0.20050880471        8    8    5    5
    0.58828800862E-02    8    8    6    1
    0.32227824134E-03    8    8    6    2
   -0.55792151211E-03    8    8    6    3
    0.73920634975E-04    8    8    6    4
    0.84582519899E-03    8    8    6    5
    0.84235575633        8    8    6    6
    0.43359854201E-03    8    8    7    1
    0.22107920722E-02    8    8    7    2
   -0.32176965470E-02    8    8    7    3
    0.50963761179E-03    8    8    7    4
    0.56555564535E-02    8    8    7    5
   -0.56621775644E-02    8    8    7    6
    0.83375740047        8    8    7    7
    0.32231558617E-03    8    8    8    1
   -0.15899807704E-02    8    8    8    2
    0.48933012104E-02    8    8    8    3
    0.40653949061E-02    8    8    8    4
    0.29468925299E-02    8    8    8    5
    0.91490396408E-03    8    8    8    6
    0.71230691141E-03    8    8    8    7
    0.86904000858        8    8    8    8
   -0.40418885947E-03    9    1    1    1
    0.74675490419E-04    9    1    2    1
   -0.49848819787E-03    9    1    2    2
   -0.65049381911E-04    9    1    3    1
    0.44734952653E-04    9    1    3    2
   -0.17596095026E-03    9    1    3    3
    0.27971727050E-03    9    1    4    1
    0.46802645216E-04    9    1    4    2
    0.11237350109E-04    9    1    4    3
   -0.39364148448E-03    9    1    4    4
   -0.17614871544E-03    9    1    5    1
    0.69527961844E-04    9    1    5    2
   -0.16937134871E-04    9    1    5    3
   -0.22508675865E-04    9    1    5    4
   -0.34983078918E-03    9    1    5    5
    0.11175259303E-05    9    1    6    1
    0.46894553089E-04    9    1    6    2
    0.39264303255E-04    9    1    6    3
    0.44426272317E-04    9    1    6    4
   -0.82957992270E-05    9    1    6    5
   -0.42893150410E-03    9    1    6    6
    0.23471454765E-04    9    1    7    1
   -0.12789410816E-04    9    1    7    2
    0.43160432464E-05    9    1    7    3
    0.62632465126E-04    9    1    7    4
   -0.10868275677E-04    9    1    7    5
   -0.25388477899E-04    9    1    7    6
   -0.33927711651E-03    9    1    7    7
    0.28863850173E-04    9    1    8    1
   -0.92034747880E-05    9    1    8    2
    0.20979470355E-04    9    1    8    3
   -0.25506579961E-04    9    1    8    4
    0.37526696806E-04    9    1    8    5
    0.24015431404E-04    9    1    8    6
   -0.68924282681E-04    9    1    8    7
   -0.38272803408E-03    9    1    8    8
    0.85237857318E-04    9    1    9    1
    0.32365944048E-02    9    2    1    1
    0.10579545528E-03    9    2    2    1
    0.33776444553E-02    9    2    2    2
    0.40354990173E-04    9    2    3    1
   -0.13185138845E-03    9    2    3    2
    0.30607514807E-02    9    2    3    3
   -0.91645475033E-04    9    2    4    1
    0.33867931157E-03    9    2    4    2
    0.49848636068E-05    9    2    4    3