/home/lila/OpenMolcas/test/additional/425.input
/home/lila/OpenMolcas/test/additional/426.input
