 &FCI NORB=   6,NELEC= 6,MS2=0,
  ORBSYM=1,1,1,1,1,1,
  ISYM=1,
 &END
  0.6160981814264821   1   1   1   1
  0.002180286252703087   3   1   1   1
  0.2017185336438339   3   3   1   1
  0.005317562096615394   2   1   1   1
  0.002737733284903478   3   2   1   1
  0.3190342043556068   2   2   1   1
 -0.002180369245976079   5   1   1   1
 -0.00134390676834391   5   3   1   1
  0.0004457685122288839   5   2   1   1
  0.2017185399406423   5   5   1   1
 -0.005317694173884897   6   1   1   1
  0.0004457558384229152   6   3   1   1
 -7.33482406665327e-05   6   2   1   1
  0.002737741493154309   6   5   1   1
  0.3190342864923977   6   6   1   1
  0.0001206580915166186   4   1   1   1
  0.0005941154491284056   4   3   1   1
 -0.001546924866470646   4   2   1   1
 -0.0005941263197233766   5   4   1   1
  0.001546927901250953   6   4   1   1
  0.1766435331372536   4   4   1   1
  0.002180286252703094   3   1   1   1
  0.0001139357579047526   3   1   3   1
  0.002180377864112526   3   3   3   1
  0.0002358059063233142   3   1   2   1
  0.0002358117850217029   3   2   3   1
  7.334819248740326e-05   3   1   2   2
 -3.358059748017082e-05   5   1   3   1
 -3.35814300901707e-05   5   3   3   1
  1.425019537216211e-05   5   2   3   1
  0.001343906781616146   5   5   3   1
  2.385407765933781e-05   6   1   3   1
  1.157121831375364e-05   6   3   3   1
 -5.01545986538746e-05   6   2   3   1
 -7.251050725405215e-06   6   5   3   1
  0.001546922482444845   6   6   3   1
  1.157217928727654e-05   4   1   3   1
  2.384986686319635e-05   4   3   3   1
 -5.015487886313879e-05   4   2   3   1
 -7.25073768454416e-06   5   4   3   1
  2.095104877571487e-05   6   4   3   1
  0.001546927849818929   4   4   3   1
  0.2017185336438339   3   3   1   1
  0.002180377864112534   3   3   3   1
  0.6160982560452104   3   3   3   3
  0.002737719671024378   3   3   2   1
  0.005317670505490136   3   3   3   2
  0.3190342864815139   3   3   2   2
 -0.001343908692648719   5   1   3   3
 -0.002180377735967665   5   3   3   3
  0.0004457676893531918   5   2   3   3
  0.2017185336574936   5   5   3   3
  0.0005941159237018469   6   1   3   3
  0.0001205559176557947   6   3   3   3
 -0.001546922501373226   6   2   3   3
 -0.0005941159317378458   6   5   3   3
  0.1766435476352086   6   6   3   3
  0.0004457674023779332   4   1   3   3
 -0.005317670465704659   4   3   3   3
 -7.337527737429073e-05   4   2   3   3
  0.002737720029982689   5   4   3   3
  0.001546922442186507   6   4   3   3
  0.3190342864667196   4   4   3   3
  0.005317562096615404   2   1   1   1
  0.0002358059063233145   3   1   2   1
  0.002737719671024374   3   3   2   1
  0.004114381346870509   2   1   2   1
  1.537671508112642e-05   3   2   2   1
  0.005317561007193067   2   2   2   1
  2.385110360950405e-05   5   1   2   1
  7.250738609164221e-06   5   3   2   1
 -2.229203882089144e-05   5   2   2   1
 -0.0005941262328730485   5   5   2   1
 -1.537674069038259e-05   6   1   2   1
 -7.313892735328218e-05   6   3   2   1
 -0.0002358059266644937   6   2   2   1
  0.0003117597755806758   6   5   2   1
  0.002737720106330957   6   6   2   1
 -2.229205931036942e-05   4   1   2   1
 -0.0003117597839834215   4   3   2   1
  2.385108415330733e-05   4   2   2   1
  0.0001176654250054895   5   4   2   1
 -7.250733746959357e-06   6   4   2   1
 -0.0005941263232838753   4   4   2   1
  0.002737733284903481   3   2   1   1
  0.0002358117850217029   3   2   3   1
  0.00531767050549011   3   3   3   2
  1.537671508112257e-05   3   2   2   1
  0.004114400187296648   3   2   3   2
  0.005317692226745576   3   2   2   2
  7.250681712693992e-06   5   1   3   2
  2.384987897108149e-05   5   3   3   2
 -2.229232175131407e-05   5   2   3   2
 -0.0005941154411226606   5   5   3   2
 -0.0003117603926793551   6   1   3   2
 -2.229723809640827e-05   6   3   3   2
  2.385407355364438e-05   6   2   3   2
  0.000117665417109628   6   5   3   2
 -0.0005941160882307959   6   6   3   2
 -7.313743461454917e-05   4   1   3   2
 -1.538121723044199e-05   4   3   3   2
 -0.0002358114598298154   4   2   3   2
  0.0003117597946925069   5   4   3   2
 -7.251048767850634e-06   6   4   3   2
  0.002737742213279764   4   4   3   2
  0.3190342043556066   2   2   1   1
  7.334819248739754e-05   3   1   2   2
  0.3190342864815139   3   3   2   2
  0.005317561007193038   2   2   2   1
  0.005317692226745569   3   2   2   2
  0.616098181626068   2   2   2   2
 -0.001546924509021753   5   1   2   2
 -0.001546927800469901   5   3   2   2
  0.000120658662267438   5   2   2   2
  0.1766435331121997   5   5   2   2
 -0.00273773406992851   6   1   2   2
  0.0004457556559781676   6   3   2   2
 -0.002180286303619822   6   2   2   2
 -0.0005941155912446636   6   5   2   2
  0.2017185336744557   6   6   2   2
  0.000445768367571011   4   1   2   2
 -0.00273774220581202   4   3   2   2
 -0.002180370287603079   4   2   2   2
 -0.0005941262535017477   5   4   2   2
  0.001343906773421384   6   4   2   2
  0.201718540008977   4   4   2   2
 -0.002180369245976076   5   1   1   1
 -3.358059748017068e-05   5   1   3   1
 -0.001343908692648723   5   1   3   3
  2.385110360950474e-05   5   1   2   1
  7.250681712693823e-06   5   1   3   2
 -0.001546924509021759   5   1   2   2
  0.0001139370330059152   5   1   5   1
  3.358059983961457e-05   5   3   5   1
 -1.157226242118972e-05   5   2   5   1
 -0.002180370058038554   5   5   5   1
  0.0002358114428631377   6   1   5   1
 -1.424996548625756e-05   6   3   5   1
  5.015488146873203e-05   6   2   5   1
 -0.0002358114445921164   6   5   5   1
 -7.33752075893421e-05   6   6   5   1
 -1.157226499696402e-05   5   1   4   1
 -7.250676318961487e-06   5   1   4   3
  2.095115777098045e-05   5   1   4   2
  2.38510847099282e-05   5   4   5   1
 -5.015487730561983e-05   6   4   5   1
 -0.001546924797649286   5   1   4   4
 -0.001343906768343906   5   3   1   1
 -3.358143009017087e-05   5   3   3   1
 -0.00218037773596766   5   3   3   3
  7.250738609164973e-06   5   3   2   1
  2.384987897108044e-05   5   3   3   2
 -0.001546927800469904   5   3   2   2
  3.358059983961471e-05   5   3   5   1
  0.0001139357593982639   5   3   5   3
 -1.157217782174506e-05   5   3   5   2
 -0.002180286389303151   5   5   5   3
 -7.251050133395986e-06   6   1   5   3
 -1.157121850643597e-05   6   3   5   3
  2.095104845051801e-05   6   2   5   3
  2.38540754116657e-05   6   5   5   3
 -0.001546922523405245   6   6   5   3
 -1.42501982353942e-05   5   3   4   1
  0.0002358117962570959   5   3   4   3
  5.015488411374189e-05   5   3   4   2
 -0.0002358059002710466   5   4   5   3
 -5.015459887964174e-05   6   4   5   3
 -7.33481986159064e-05   5   3   4   4
  0.0004457685122288853   5   2   1   1
  1.425019537216205e-05   5   2   3   1
  0.0004457676893531921   5   2   3   3
 -2.229203882089141e-05   5   2   2   1
 -2.229232175131523e-05   5   2   3   2
  0.0001206586622674367   5   2   2   2
 -1.157226242118947e-05   5   2   5   1
 -1.15721778217449e-05   5   3   5   2
  1.37956849273742e-05   5   2   5   2
  0.0001206570537184631   5   5   5   2
  7.313743298212241e-05   6   1   5   2
  6.620250876230623e-06   6   3   5   2
 -1.157218025106499e-05   6   2   5   2
 -2.229234683705933e-05   6   5   5   2
  0.0004457672625059792   6   6   5   2
  6.620211314843656e-06   5   2   4   1
  7.313743470566043e-05   5   2   4   3
 -1.157226395302865e-05   5   2   4   2
 -2.229206037071342e-05   5   4   5   2
  1.425019965164583e-05   6   4   5   2
  0.0004457680936827322   5   2   4   4
  0.2017185399406423   5   5   1   1
  0.001343906781616142   5   5   3   1
  0.2017185336574935   5   5   3   3
 -0.0005941262328730528   5   5   2   1
 -0.0005941154411226446   5   5   3   2
  0.1766435331121997   5   5   2   2
 -0.002180370058038556   5   5   5   1
 -0.002180286389303151   5   5   5   3
  0.0001206570537184625   5   5   5   2
  0.6160981814821571   5   5   5   5
 -0.002737741454265237   6   1   5   5
  0.0004457558391991199   6   3   5   5
 -0.001546927855322084   6   2   5   5
  0.005317694053896933   6   5   5   5
  0.3190342865136963   6   6   5   5
  0.0004457682351498332   5   5   4   1
 -0.002737733292299167   5   5   4   3
 -0.001546924480506295   5   5   4   2
  0.00531756119251265   5   5   5   4
  7.334822210601066e-05   6   4   5   5
  0.319034204363801   5   5   4   4
 -0.00531769417388489   6   1   1   1
  2.385407765934009e-05   6   1   3   1
  0.0005941159237018428   6   1   3   3
 -1.537674069037069e-05   6   1   2   1
 -0.0003117603926793532   6   1   3   2
 -0.002737734069928496   6   1   2   2
  0.0002358114428631389   6   1   5   1
 -7.251050133396047e-06   6   1   5   3
  7.313743298212241e-05   6   1   5   2
 -0.002737741454265213   6   1   5   5
  0.004114400188455099   6   1   6   1
  2.229722426434843e-05   6   3   6   1
  0.0002358117874623011   6   2   6   1
 -1.538118632213163e-05   6   5   6   1
 -0.005317668586102406   6   6   6   1
  2.229233500207147e-05   6   1   4   1
  0.0001176654188761919   6   1   4   3
 -7.250669230761831e-06   6   1   4   2
 -0.0003117597642489237   6   1   5   4
  2.384986986651087e-05   6   4   6   1
  0.0005941155974909615   6   1   4   4
  0.0004457558384229179   6   3   1   1
  1.157121831375364e-05   6   3   3   1
  0.0001205559176557964   6   3   3   3
 -7.313892735328194e-05   6   3   2   1
 -2.229723809640857e-05   6   3   3   2
  0.0004457556559781673   6   3   2   2
 -1.424996548625735e-05   6   3   5   1
 -1.157121850643592e-05   6   3   5   3
  6.620250876230618e-06   6   3   5   2
  0.0004457558391991184   6   3   5   5
  2.229722426434898e-05   6   3   6   1
  1.379535664231594e-05   6   3   6   3
 -1.157121909059116e-05   6   3   6   2
 -2.229722551734884e-05   6   5   6   3
  0.0001205566579562603   6   6   6   3
  6.620251375238626e-06   6   3   4   1
  2.229723627181571e-05   6   3   4   3
 -1.424996711485719e-05   6   3   4   2
 -7.31389274178507e-05   6   3   5   4
  1.15712190398891e-05   6   4   6   3
  0.0004457556560394682   6   3   4   4
 -7.334824066653784e-05   6   2   1   1
 -5.015459865387409e-05   6   2   3   1
 -0.001546922501373225   6   2   3   3
 -0.0002358059266644921   6   2   2   1
  2.385407355364551e-05   6   2   3   2
 -0.002180286303619819   6   2   2   2
  5.01548814687322e-05   6   2   5   1
  2.095104845051802e-05   6   2   5   3
 -1.157218025106499e-05   6   2   5   2
 -0.001546927855322084   6   2   5   5
  0.0002358117874623023   6   2   6   1
 -1.157121909059151e-05   6   3   6   2
  0.0001139357621564116   6   2   6   2
  2.384986370439237e-05   6   5   6   2
 -0.002180377896599432   6   6   6   2
 -1.425019587948078e-05   6   2   4   1
 -7.251046366043928e-06   6   2   4   3
  3.358059950011112e-05   6   2   4   2
  7.250735715971842e-06   6   2   5   4
 -3.35814308195279e-05   6   4   6   2
 -0.001343906771144794   6   2   4   4
  0.002737741493154304   6   5   1   1
 -7.251050725405906e-06   6   5   3   1
 -0.0005941159317378523   6   5   3   3
  0.0003117597755806701   6   5   2   1
  0.0001176654171096295   6   5   3   2
 -0.0005941155912446757   6   5   2   2
 -0.0002358114445921161   6   5   5   1
  2.38540754116675e-05   6   5   5   3
 -2.229234683705962e-05   6   5   5   2
  0.005317694053896917   6   5   5   5
 -1.53811863221293e-05   6   5   6   1
 -2.229722551734845e-05   6   5   6   3
  2.384986370439145e-05   6   5   6   2
  0.004114400190143544   6   5   6   5
  0.005317668684617757   6   6   6   5
 -7.313743313448306e-05   6   5   4   1
 -0.0003117603920782856   6   5   4   3
  7.250679243409423e-06   6   5   4   2
  1.537673120885054e-05   6   5   5   4
  0.00023581177680778   6   5   6   4
  0.002737734028170301   6   5   4   4
  0.3190342864923977   6   6   1   1
  0.00154692248244484   6   6   3   1
  0.1766435476352085   6   6   3   3
  0.002737720106330943   6   6   2   1
 -0.0005941160882307929   6   6   3   2
  0.2017185336744557   6   6   2   2
 -7.337520758934294e-05   6   6   5   1
 -0.001546922523405243   6   6   5   3
  0.0004457672625059802   6   6   5   2
  0.3190342865136963   6   6   5   5
 -0.005317668586102385   6   6   6   1
  0.0001205566579562563   6   6   6   3
 -0.002180377896599436   6   6   6   2
  0.005317668684617746   6   6   6   5
  0.6160982563101238   6   6   6   6
  0.0004457675307228542   6   6   4   1
  0.0005941160939683266   6   6   4   3
 -0.001343908692870636   6   6   4   2
  0.002737719741490483   6   6   5   4
  0.002180378063831663   6   6   6   4
  0.2017185336660234   6   6   4   4
  0.0001206580915166196   4   1   1   1
  1.157217928727653e-05   4   1   3   1
  0.0004457674023779351   4   1   3   3
 -2.229205931036921e-05   4   1   2   1
 -7.313743461455004e-05   4   1   3   2
  0.0004457683675710087   4   1   2   2
 -1.157226499696378e-05   5   1   4   1
 -1.425019823539424e-05   5   3   4   1
  6.620211314843679e-06   5   2   4   1
  0.0004457682351498344   5   5   4   1
  2.229233500207157e-05   6   1   4   1
  6.620251375238502e-06   6   3   4   1
 -1.425019587948087e-05   6   2   4   1
 -7.313743313448348e-05   6   5   4   1
  0.0004457675307228511   6   6   4   1
  1.379568532899387e-05   4   1   4   1
  2.229233762572857e-05   4   3   4   1
 -1.157226383468569e-05   4   2   4   1
 -2.22920623929445e-05   5   4   4   1
  1.15721791193434e-05   6   4   4   1
  0.0001206576239922331   4   4   4   1
  0.0005941154491284133   4   3   1   1
  2.384986686319659e-05   4   3   3   1
 -0.005317670465704648   4   3   3   3
 -0.0003117597839834156   4   3   2   1
 -1.538121723044524e-05   4   3   3   2
 -0.002737742205812018   4   3   2   2
 -7.250676318961182e-06   5   1   4   3
  0.0002358117962570959   5   3   4   3
  7.313743470566093e-05   5   2   4   3
 -0.002737733292299156   5   5   4   3
  0.0001176654188761881   6   1   4   3
  2.229723627181552e-05   6   3   4   3
 -7.251046366044958e-06   6   2   4   3
 -0.0003117603920782836   6   5   4   3
  0.0005941160939683286   6   6   4   3
  2.229233762572869e-05   4   3   4   1
  0.004114400185976167   4   3   4   3
  0.0002358114530333703   4   3   4   2
 -1.537672339543719e-05   5   4   4   3
  2.385407750228246e-05   6   4   4   3
 -0.005317692276643684   4   4   4   3
 -0.001546924866470649   4   2   1   1
 -5.01548788631386e-05   4   2   3   1
 -7.337527737428449e-05   4   2   3   3
  2.385108415330914e-05   4   2   2   1
 -0.0002358114598298144   4   2   3   2
 -0.002180370287603079   4   2   2   2
  2.09511577709805e-05   5   1   4   2
  5.015488411374177e-05   5   3   4   2
 -1.157226395302872e-05   5   2   4   2
 -0.001546924480506292   5   5   4   2
 -7.250669230761113e-06   6   1   4   2
 -1.424996711485731e-05   6   3   4   2
  3.358059950011123e-05   6   2   4   2
  7.250679243408779e-06   6   5   4   2
 -0.00134390869287064   6   6   4   2
 -1.15722638346858e-05   4   2   4   1
  0.0002358114530333696   4   3   4   2
  0.0001139370389415269   4   2   4   2
  2.385108987884434e-05   5   4   4   2
 -3.358059750326595e-05   6   4   4   2
 -0.002180369139549398   4   4   4   2
 -0.0005941263197233915   5   4   1   1
 -7.250737684545529e-06   5   4   3   1
  0.002737720029982689   5   4   3   3
  0.0001176654250054856   5   4   2   1
  0.000311759794692506   5   4   3   2
 -0.0005941262535017471   5   4   2   2
  2.385108470992778e-05   5   4   5   1
 -0.0002358059002710479   5   4   5   3
 -2.229206037071344e-05   5   4   5   2
  0.005317561192512653   5   5   5   4
 -0.0003117597642489238   6   1   5   4
 -7.313892741785022e-05   6   3   5   4
  7.250735715971916e-06   6   2   5   4
  1.537673120886331e-05   6   5   5   4
  0.002737719741490477   6   6   5   4
 -2.229206239294472e-05   5   4   4   1
 -1.537672339544505e-05   5   4   4   3
  2.385108987884301e-05   5   4   4   2
  0.004114381347246428   5   4   5   4
  0.000235805929582788   6   4   5   4
  0.005317561894694523   5   4   4   4
  0.001546927901250953   6   4   1   1
  2.09510487757148e-05   6   4   3   1
  0.001546922442186501   6   4   3   3
 -7.250733746959825e-06   6   4   2   1
 -7.251048767850207e-06   6   4   3   2
  0.001343906773421382   6   4   2   2
 -5.015487730561978e-05   6   4   5   1
 -5.015459887964152e-05   6   4   5   3
  1.425019965164603e-05   6   4   5   2
  7.334822210601129e-05   6   4   5   5
  2.384986986651081e-05   6   4   6   1
  1.157121903988951e-05   6   4   6   3
 -3.358143081952764e-05   6   4   6   2
  0.0002358117768077812   6   5   6   4
  0.00218037806383166   6   6   6   4
  1.157217911934346e-05   6   4   4   1
  2.385407750228076e-05   6   4   4   3
 -3.358059750326609e-05   6   4   4   2
  0.0002358059295827879   6   4   5   4
  0.000113935760841671   6   4   6   4
  0.002180286107163727   6   4   4   4
  0.1766435331372537   4   4   1   1
  0.001546927849818926   4   4   3   1
  0.3190342864667197   4   4   3   3
 -0.0005941263232838948   4   4   2   1
  0.002737742213279756   4   4   3   2
  0.201718540008977   4   4   2   2
 -0.001546924797649288   5   1   4   4
 -7.334819861590843e-05   5   3   4   4
  0.0004457680936827317   5   2   4   4
  0.319034204363801   5   5   4   4
  0.0005941155974909674   6   1   4   4
  0.0004457556560394675   6   3   4   4
 -0.001343906771144789   6   2   4   4
  0.00273773402817031   6   5   4   4
  0.2017185336660234   6   6   4   4
  0.0001206576239922317   4   4   4   1
 -0.005317692276643681   4   4   4   3
 -0.002180369139549398   4   4   4   2
  0.005317561894694515   5   4   4   4
  0.002180286107163717   6   4   4   4
  0.6160981815864466   4   4   4   4
 -1.57133630617221   1   1   0   0
  0.005171173690044129   3   1   0   0
 -1.5713363284542   3   3   0   0
  0.1289922064492774   2   1   0   0
  0.1289921240606925   3   2   0   0
 -1.571336303486013   2   2   0   0
 -0.005171149714400644   5   1   0   0
 -0.005171173795687151   5   3   0   0
 -0.01198808392275178   5   2   0   0
 -1.571336305353854   5   5   0   0
 -0.1289921243732937   6   1   0   0
 -0.01198796456207808   6   3   0   0
 -0.005171175549329401   6   2   0   0
  0.1289921240723184   6   5   0   0
 -1.571336325119684   6   6   0   0
 -0.01198808459860317   4   1   0   0
 -0.128992124435569   4   3   0   0
 -0.005171151715343356   4   2   0   0
  0.1289922064560849   5   4   0   0
  0.005171174814139756   6   4   0   0
 -1.571336304349324   4   4   0   0
 -224.2424918541479   0   0   0   0
