Warning: unknown build, either you should compile
         Molcas first, or you're trying to use a
         git repository without git installed.
Molcas version unknown patch level unknown
== verification run ==
machine: Linux Spaceship 6.8.0-90-generic #91-Ubuntu SMP PREEMPT_DYNAMIC Tue Nov 18 14:14:30 UTC 2025 x86_64 x86_64 x86_64 GNU/Linux
date: Mon Feb 23 11:03:03 2026

--- Run: additional__425
"/home/lila/OpenMolcas" is not a valid MOLCAS installation
--- Run: additional__426
"/home/lila/OpenMolcas" is not a valid MOLCAS installation
