Warning: unknown build, either you should compile
         Molcas first, or you're trying to use a
         git repository without git installed.
Molcas version unknown patch level unknown
== verification run ==
machine: Linux Spaceship 6.8.0-90-generic #91-Ubuntu SMP PREEMPT_DYNAMIC Tue Nov 18 14:14:30 UTC 2025 x86_64 x86_64 x86_64 GNU/Linux
date: Mon Feb 23 11:03:03 2026

1: Basic tests that must pass
2: Additional tests that must pass
3: Other tests that may fail, but should be fixed
4: Personal development tests that may fail or not

----------
group additional from: /home/lila/OpenMolcas/test/additional
2:additional:425 Failed! ([none])
2:additional:426 Failed! ([none])
----------

*Failed critical tests* 2
