************************************************************************
* This file is part of OpenMolcas.                                     *
*                                                                      *
* OpenMolcas is free software; you can redistribute it and/or modify   *
* it under the terms of the GNU Lesser General Public License, v. 2.1. *
* OpenMolcas is distributed in the hope that it will be useful, but it *
* is provided "as is" and without any express or implied warranties.   *
* For more details see the full text of the license in the file        *
* LICENSE or in <http://www.gnu.org/licenses/>.                        *
************************************************************************

#Hamiltonian NRH
#Nucleus UNK
#Contraction SEG
#AllElectron AE_

************************************************************************
* This file has been generated from Basis Set Exchange data:           *
*   https://www.basissetexchange.org                                   *
* Version: 1  (Data from Gaussian 09)                                  *
************************************************************************

/H.3-21G.Binkley.3s.2s.
J.S. Binkley, J.A. Pople, W.J. Hehre. J. Am. Chem. Soc. 102 (1980) 939-947. doi:10.1021/ja00523a008
HYDROGEN (3s) -> [2s]
     1.0   0
* s-type functions
    3    2
          5.44717800
          0.82454724
          0.18319158
  0.156284978700  0.000000000000
  0.904690876700  0.000000000000
  0.000000000000  1.000000000000

/He.3-21G.Binkley.3s.2s.
J.S. Binkley, J.A. Pople, W.J. Hehre. J. Am. Chem. Soc. 102 (1980) 939-947. doi:10.1021/ja00523a008
HELIUM (3s) -> [2s]
     2.0   0
* s-type functions
    3    2
         13.62670000
          1.99935000
          0.38299300
  0.175229871800  0.000000000000
  0.893482346500  0.000000000000
  0.000000000000  1.000000000000

/Li.3-21G.Binkley.6s3p.3s2p.
J.S. Binkley, J.A. Pople, W.J. Hehre. J. Am. Chem. Soc. 102 (1980) 939-947. doi:10.1021/ja00523a008
LITHIUM (6s,3p) -> [3s,2p]
     3.0   1
* s-type functions
    6    3
         36.83820000
          5.48172000
          1.11327000
          0.54020500
          0.10225500
          0.02856450
  0.069668663810  0.000000000000  0.000000000000
  0.381346349300  0.000000000000  0.000000000000
  0.681702624400  0.000000000000  0.000000000000
  0.000000000000 -0.263126405800  0.000000000000
  0.000000000000  1.143387418000  0.000000000000
  0.000000000000  0.000000000000  1.000000000000
* p-type functions
    3    2
          0.54020500
          0.10225500
          0.02856450
  0.161545970800  0.000000000000
  0.915662834700  0.000000000000
  0.000000000000  1.000000000000

/Be.3-21G.Binkley.6s3p.3s2p.
J.S. Binkley, J.A. Pople, W.J. Hehre. J. Am. Chem. Soc. 102 (1980) 939-947. doi:10.1021/ja00523a008
BERYLLIUM (6s,3p) -> [3s,2p]
     4.0   1
* s-type functions
    6    3
         71.88760000
         10.72890000
          2.22205000
          1.29548000
          0.26888100
          0.07735010
  0.064426309750  0.000000000000  0.000000000000
  0.366096055400  0.000000000000  0.000000000000
  0.695934105300  0.000000000000  0.000000000000
  0.000000000000 -0.421064065900  0.000000000000
  0.000000000000  1.224070192000  0.000000000000
  0.000000000000  0.000000000000  1.000000000000
* p-type functions
    3    2
          1.29548000
          0.26888100
          0.07735010
  0.205131923700  0.000000000000
  0.882527671900  0.000000000000
  0.000000000000  1.000000000000

/B.3-21G.Binkley.6s3p.3s2p.
J.S. Binkley, J.A. Pople, W.J. Hehre. J. Am. Chem. Soc. 102 (1980) 939-947. doi:10.1021/ja00523a008
BORON (6s,3p) -> [3s,2p]
     5.0   1
* s-type functions
    6    3
        116.43400000
         17.43140000
          3.68016000
          2.28187000
          0.46524800
          0.12432800
  0.062960465890  0.000000000000  0.000000000000
  0.363303803200  0.000000000000  0.000000000000
  0.697254622300  0.000000000000  0.000000000000
  0.000000000000 -0.368663477300  0.000000000000
  0.000000000000  1.199444806000  0.000000000000
  0.000000000000  0.000000000000  1.000000000000
* p-type functions
    3    2
          2.28187000
          0.46524800
          0.12432800
  0.231151902300  0.000000000000
  0.866763633700  0.000000000000
  0.000000000000  1.000000000000

/C.3-21G.Binkley.6s3p.3s2p.
J.S. Binkley, J.A. Pople, W.J. Hehre. J. Am. Chem. Soc. 102 (1980) 939-947. doi:10.1021/ja00523a008
CARBON (6s,3p) -> [3s,2p]
     6.0   1
* s-type functions
    6    3
        172.25600000
         25.91090000
          5.53335000
          3.66498000
          0.77054500
          0.19585700
  0.061766907380  0.000000000000  0.000000000000
  0.358794042900  0.000000000000  0.000000000000
  0.700713083700  0.000000000000  0.000000000000
  0.000000000000 -0.395895162100  0.000000000000
  0.000000000000  1.215834356000  0.000000000000
  0.000000000000  0.000000000000  1.000000000000
* p-type functions
    3    2
          3.66498000
          0.77054500
          0.19585700
  0.236459946600  0.000000000000
  0.860618805700  0.000000000000
  0.000000000000  1.000000000000

/N.3-21G.Binkley.6s3p.3s2p.
J.S. Binkley, J.A. Pople, W.J. Hehre. J. Am. Chem. Soc. 102 (1980) 939-947. doi:10.1021/ja00523a008
NITROGEN (6s,3p) -> [3s,2p]
     7.0   1
* s-type functions
    6    3
        242.76600000
         36.48510000
          7.81449000
          5.42522000
          1.14915000
          0.28320500
  0.059865700510  0.000000000000  0.000000000000
  0.352955003000  0.000000000000  0.000000000000
  0.706513006000  0.000000000000  0.000000000000
  0.000000000000 -0.413300077400  0.000000000000
  0.000000000000  1.224417267000  0.000000000000
  0.000000000000  0.000000000000  1.000000000000
* p-type functions
    3    2
          5.42522000
          1.14915000
          0.28320500
  0.237972016200  0.000000000000
  0.858953058600  0.000000000000
  0.000000000000  1.000000000000

/O.3-21G.Binkley.6s3p.3s2p.
J.S. Binkley, J.A. Pople, W.J. Hehre. J. Am. Chem. Soc. 102 (1980) 939-947. doi:10.1021/ja00523a008
OXYGEN (6s,3p) -> [3s,2p]
     8.0   1
* s-type functions
    6    3
        322.03700000
         48.43080000
         10.42060000
          7.40294000
          1.57620000
          0.37368400
  0.059239393390  0.000000000000  0.000000000000
  0.351499960800  0.000000000000  0.000000000000
  0.707657921000  0.000000000000  0.000000000000
  0.000000000000 -0.404453583200  0.000000000000
  0.000000000000  1.221561761000  0.000000000000
  0.000000000000  0.000000000000  1.000000000000
* p-type functions
    3    2
          7.40294000
          1.57620000
          0.37368400
  0.244586107000  0.000000000000
  0.853955373500  0.000000000000
  0.000000000000  1.000000000000

/F.3-21G.Binkley.6s3p.3s2p.
J.S. Binkley, J.A. Pople, W.J. Hehre. J. Am. Chem. Soc. 102 (1980) 939-947. doi:10.1021/ja00523a008
FLUORINE (6s,3p) -> [3s,2p]
     9.0   1
* s-type functions
    6    3
        413.80100000
         62.24460000
         13.43400000
          9.77759000
          2.08617000
          0.48238300
  0.058548302930  0.000000000000  0.000000000000
  0.349308017500  0.000000000000  0.000000000000
  0.709632035500  0.000000000000  0.000000000000
  0.000000000000 -0.407326277700  0.000000000000
  0.000000000000  1.223137831000  0.000000000000
  0.000000000000  0.000000000000  1.000000000000
* p-type functions
    3    2
          9.77759000
          2.08617000
          0.48238300
  0.246680003200  0.000000000000
  0.852321011000  0.000000000000
  0.000000000000  1.000000000000

/Ne.3-21G.Binkley.6s3p.3s2p.
J.S. Binkley, J.A. Pople, W.J. Hehre. J. Am. Chem. Soc. 102 (1980) 939-947. doi:10.1021/ja00523a008
NEON (6s,3p) -> [3s,2p]
    10.0   1
* s-type functions
    6    3
        515.72400000
         77.65380000
         16.81360000
         12.48300000
          2.66451000
          0.60625000
  0.058143030440  0.000000000000  0.000000000000
  0.347951182200  0.000000000000  0.000000000000
  0.710714372100  0.000000000000  0.000000000000
  0.000000000000 -0.409922320800  0.000000000000
  0.000000000000  1.224310958000  0.000000000000
  0.000000000000  0.000000000000  1.000000000000
* p-type functions
    3    2
         12.48300000
          2.66451000
          0.60625000
  0.247459983600  0.000000000000
  0.851742943500  0.000000000000
  0.000000000000  1.000000000000

/Na.3-21G.Gordon.9s6p.4s3p.
M.S. Gordon, J.S. Binkley, J.A. Pople, W.J. Pietro, W.J. Hehre. J. Am. Chem. Soc. 104 (1982) 2797-2803. doi:10.1021/ja00374a017
SODIUM (9s,6p) -> [4s,3p]
    11.0   1
* s-type functions
    9    4
        547.61300000
         82.06780000
         17.69170000
         17.54070000
          3.79398000
          0.90644100
          0.50182400
          0.06094580
          0.02443490
  0.067491118010  0.000000000000  0.000000000000  0.000000000000
  0.393505105000  0.000000000000  0.000000000000  0.000000000000
  0.665605177600  0.000000000000  0.000000000000  0.000000000000
  0.000000000000 -0.111937029000  0.000000000000  0.000000000000
  0.000000000000  0.254654065900  0.000000000000  0.000000000000
  0.000000000000  0.844417218700  0.000000000000  0.000000000000
  0.000000000000  0.000000000000 -0.219660497500  0.000000000000
  0.000000000000  0.000000000000  1.089122467000  0.000000000000
  0.000000000000  0.000000000000  0.000000000000  1.000000000000
* p-type functions
    6    3
         17.54070000
          3.79398000
          0.90644100
          0.50182400
          0.06094580
          0.02443490
  0.128233009300  0.000000000000  0.000000000000
  0.471533034100  0.000000000000  0.000000000000
  0.604273043700  0.000000000000  0.000000000000
  0.000000000000  0.009066487958  0.000000000000
  0.000000000000  0.997201775400  0.000000000000
  0.000000000000  0.000000000000  1.000000000000

/Mg.3-21G.Gordon.9s6p.4s3p.
M.S. Gordon, J.S. Binkley, J.A. Pople, W.J. Pietro, W.J. Hehre. J. Am. Chem. Soc. 104 (1982) 2797-2803. doi:10.1021/ja00374a017
MAGNESIUM (9s,6p) -> [4s,3p]
    12.0   1
* s-type functions
    9    4
        652.84100000
         98.38050000
         21.29960000
         23.37270000
          5.19953000
          1.31508000
          0.61134900
          0.14184100
          0.04640110
  0.067598142950  0.000000000000  0.000000000000  0.000000000000
  0.391777669400  0.000000000000  0.000000000000  0.000000000000
  0.666660437400  0.000000000000  0.000000000000  0.000000000000
  0.000000000000 -0.110245952400  0.000000000000  0.000000000000
  0.000000000000  0.184118920600  0.000000000000  0.000000000000
  0.000000000000  0.896398613300  0.000000000000  0.000000000000
  0.000000000000  0.000000000000 -0.361102593300  0.000000000000
  0.000000000000  0.000000000000  1.215055361000  0.000000000000
  0.000000000000  0.000000000000  0.000000000000  1.000000000000
* p-type functions
    6    3
         23.37270000
          5.19953000
          1.31508000
          0.61134900
          0.14184100
          0.04640110
  0.121013899100  0.000000000000  0.000000000000
  0.462809614000  0.000000000000  0.000000000000
  0.606906493800  0.000000000000  0.000000000000
  0.000000000000  0.024263309200  0.000000000000
  0.000000000000  0.986673373900  0.000000000000
  0.000000000000  0.000000000000  1.000000000000

/Al.3-21G.Gordon.9s6p.4s3p.
M.S. Gordon, J.S. Binkley, J.A. Pople, W.J. Pietro, W.J. Hehre. J. Am. Chem. Soc. 104 (1982) 2797-2803. doi:10.1021/ja00374a017
ALUMINIUM (9s,6p) -> [4s,3p]
    13.0   1
* s-type functions
    9    4
        775.73700000
        116.95200000
         25.33260000
         29.47960000
          6.63314000
          1.72675000
          0.94616000
          0.20250600
          0.06390880
  0.066834696470  0.000000000000  0.000000000000  0.000000000000
  0.389060979500  0.000000000000  0.000000000000  0.000000000000
  0.669467964700  0.000000000000  0.000000000000  0.000000000000
  0.000000000000 -0.107902023300  0.000000000000  0.000000000000
  0.000000000000  0.146245031600  0.000000000000  0.000000000000
  0.000000000000  0.923730199400  0.000000000000  0.000000000000
  0.000000000000  0.000000000000 -0.320326909100  0.000000000000
  0.000000000000  0.000000000000  1.184119664000  0.000000000000
  0.000000000000  0.000000000000  0.000000000000  1.000000000000
* p-type functions
    6    3
         29.47960000
          6.63314000
          1.72675000
          0.94616000
          0.20250600
          0.06390880
  0.117573985600  0.000000000000  0.000000000000
  0.461173943300  0.000000000000  0.000000000000
  0.605534925600  0.000000000000  0.000000000000
  0.000000000000  0.051938280870  0.000000000000
  0.000000000000  0.972659641700  0.000000000000
  0.000000000000  0.000000000000  1.000000000000

/Si.3-21G.Gordon.9s6p.4s3p.
M.S. Gordon, J.S. Binkley, J.A. Pople, W.J. Pietro, W.J. Hehre. J. Am. Chem. Soc. 104 (1982) 2797-2803. doi:10.1021/ja00374a017
SILICON (9s,6p) -> [4s,3p]
    14.0   1
* s-type functions
    9    4
        910.65500000
        137.33600000
         29.76010000
         36.67160000
          8.31729000
          2.21645000
          1.07913000
          0.30242200
          0.09333920
  0.066082239590  0.000000000000  0.000000000000  0.000000000000
  0.386228646900  0.000000000000  0.000000000000  0.000000000000
  0.672379385400  0.000000000000  0.000000000000  0.000000000000
  0.000000000000 -0.104511035900  0.000000000000  0.000000000000
  0.000000000000  0.107410036900  0.000000000000  0.000000000000
  0.000000000000  0.951446326900  0.000000000000  0.000000000000
  0.000000000000  0.000000000000 -0.376107879500  0.000000000000
  0.000000000000  0.000000000000  1.251649599000  0.000000000000
  0.000000000000  0.000000000000  0.000000000000  1.000000000000
* p-type functions
    6    3
         36.67160000
          8.31729000
          2.21645000
          1.07913000
          0.30242200
          0.09333920
  0.113355014700  0.000000000000  0.000000000000
  0.457578059300  0.000000000000  0.000000000000
  0.607427078700  0.000000000000  0.000000000000
  0.000000000000  0.067102991120  0.000000000000
  0.000000000000  0.956882873400  0.000000000000
  0.000000000000  0.000000000000  1.000000000000

/P.3-21G.Gordon.9s6p.4s3p.
M.S. Gordon, J.S. Binkley, J.A. Pople, W.J. Pietro, W.J. Hehre. J. Am. Chem. Soc. 104 (1982) 2797-2803. doi:10.1021/ja00374a017
PHOSPHORUS (9s,6p) -> [4s,3p]
    15.0   1
* s-type functions
    9    4
       1054.90000000
        159.19500000
         34.53040000
         44.28660000
         10.10190000
          2.73997000
          1.21865000
          0.39554600
          0.12281100
  0.065540713550  0.000000000000  0.000000000000  0.000000000000
  0.384036079400  0.000000000000  0.000000000000  0.000000000000
  0.674541139400  0.000000000000  0.000000000000  0.000000000000
  0.000000000000 -0.102130053500  0.000000000000  0.000000000000
  0.000000000000  0.081592242710  0.000000000000  0.000000000000
  0.000000000000  0.969788507600  0.000000000000  0.000000000000
  0.000000000000  0.000000000000 -0.371496021900  0.000000000000
  0.000000000000  0.000000000000  1.270993496000  0.000000000000
  0.000000000000  0.000000000000  0.000000000000  1.000000000000
* p-type functions
    6    3
         44.28660000
         10.10190000
          2.73997000
          1.21865000
          0.39554600
          0.12281100
  0.110851002500  0.000000000000  0.000000000000
  0.456495010400  0.000000000000  0.000000000000
  0.606936013900  0.000000000000  0.000000000000
  0.000000000000  0.091582310220  0.000000000000
  0.000000000000  0.934924104300  0.000000000000
  0.000000000000  0.000000000000  1.000000000000

/S.3-21G.Gordon.9s6p.4s3p.
M.S. Gordon, J.S. Binkley, J.A. Pople, W.J. Pietro, W.J. Hehre. J. Am. Chem. Soc. 104 (1982) 2797-2803. doi:10.1021/ja00374a017
SULFUR (9s,6p) -> [4s,3p]
    16.0   1
* s-type functions
    9    4
       1210.62000000
        182.74700000
         39.66730000
         52.22360000
         11.96290000
          3.28911000
          1.22384000
          0.45730300
          0.14226900
  0.065007081870  0.000000000000  0.000000000000  0.000000000000
  0.382039893500  0.000000000000  0.000000000000  0.000000000000
  0.676544811300  0.000000000000  0.000000000000  0.000000000000
  0.000000000000 -0.100309939900  0.000000000000  0.000000000000
  0.000000000000  0.065087660990  0.000000000000  0.000000000000
  0.000000000000  0.981454411700  0.000000000000  0.000000000000
  0.000000000000  0.000000000000 -0.286088853700  0.000000000000
  0.000000000000  0.000000000000  1.228059372000  0.000000000000
  0.000000000000  0.000000000000  0.000000000000  1.000000000000
* p-type functions
    6    3
         52.22360000
         11.96290000
          3.28911000
          1.22384000
          0.45730300
          0.14226900
  0.109645970200  0.000000000000  0.000000000000
  0.457648875700  0.000000000000  0.000000000000
  0.604260835900  0.000000000000  0.000000000000
  0.000000000000  0.164776994700  0.000000000000
  0.000000000000  0.870854972200  0.000000000000
  0.000000000000  0.000000000000  1.000000000000

/Cl.3-21G.Gordon.9s6p.4s3p.
M.S. Gordon, J.S. Binkley, J.A. Pople, W.J. Pietro, W.J. Hehre. J. Am. Chem. Soc. 104 (1982) 2797-2803. doi:10.1021/ja00374a017
CHLORINE (9s,6p) -> [4s,3p]
    17.0   1
* s-type functions
    9    4
       1376.40000000
        207.85700000
         45.15540000
         60.80140000
         13.97650000
          3.88710000
          1.35299000
          0.52695500
          0.16671400
  0.064582702280  0.000000000000  0.000000000000  0.000000000000
  0.380363013400  0.000000000000  0.000000000000  0.000000000000
  0.678190023900  0.000000000000  0.000000000000  0.000000000000
  0.000000000000 -0.098763952750  0.000000000000  0.000000000000
  0.000000000000  0.051133827310  0.000000000000  0.000000000000
  0.000000000000  0.991337529500  0.000000000000  0.000000000000
  0.000000000000  0.000000000000 -0.222401484100  0.000000000000
  0.000000000000  0.000000000000  1.182522574000  0.000000000000
  0.000000000000  0.000000000000  0.000000000000  1.000000000000
* p-type functions
    6    3
         60.80140000
         13.97650000
          3.88710000
          1.35299000
          0.52695500
          0.16671400
  0.108598058500  0.000000000000  0.000000000000
  0.458682247100  0.000000000000  0.000000000000
  0.601962324300  0.000000000000  0.000000000000
  0.000000000000  0.219215797200  0.000000000000
  0.000000000000  0.822320239300  0.000000000000
  0.000000000000  0.000000000000  1.000000000000

/Ar.3-21G.Gordon.9s6p.4s3p.
M.S. Gordon, J.S. Binkley, J.A. Pople, W.J. Pietro, W.J. Hehre. J. Am. Chem. Soc. 104 (1982) 2797-2803. doi:10.1021/ja00374a017
ARGON (9s,6p) -> [4s,3p]
    18.0   1
* s-type functions
    9    4
       1553.71000000
        234.67800000
         51.01210000
         70.04530000
         16.14730000
          4.53492000
          1.54209000
          0.60726700
          0.19537300
  0.064170712580  0.000000000000  0.000000000000  0.000000000000
  0.378797074200  0.000000000000  0.000000000000  0.000000000000
  0.679752133200  0.000000000000  0.000000000000  0.000000000000
  0.000000000000 -0.097466139890  0.000000000000  0.000000000000
  0.000000000000  0.039056915990  0.000000000000  0.000000000000
  0.000000000000  0.999916409300  0.000000000000  0.000000000000
  0.000000000000  0.000000000000 -0.176865568500  0.000000000000
  0.000000000000  0.000000000000  1.146897202000  0.000000000000
  0.000000000000  0.000000000000  0.000000000000  1.000000000000
* p-type functions
    6    3
         70.04530000
         16.14730000
          4.53492000
          1.54209000
          0.60726700
          0.19537300
  0.107619040800  0.000000000000  0.000000000000
  0.459576174400  0.000000000000  0.000000000000
  0.600041227700  0.000000000000  0.000000000000
  0.000000000000  0.255687013000  0.000000000000
  0.000000000000  0.789842040100  0.000000000000
  0.000000000000  0.000000000000  1.000000000000

/K.3-21G.Dobbs.12s9p.5s4p.
K.D. Dobbs, W.J. Hehre. J. Comput. Chem. 7 (1986) 359-378. doi:10.1002/jcc.540070313
POTASSIUM (12s,9p) -> [5s,4p]
    19.0   1
* s-type functions
   12    5
       1721.17550000
        260.01633000
         56.62455400
         71.55720000
         15.43894240
          4.47455105
          4.12127529
          1.18862064
       3756.73835e-4
       2445.76558e-4
       3897.17494e-5
       1606.25463e-5
  0.064874696170  0.000000000000  0.000000000000  0.000000000000  0.000000000000
  0.380859277500  0.000000000000  0.000000000000  0.000000000000  0.000000000000
  0.677368060000  0.000000000000  0.000000000000  0.000000000000  0.000000000000
  0.000000000000 -0.109342891900  0.000000000000  0.000000000000  0.000000000000
  0.000000000000  0.113064031900  0.000000000000  0.000000000000  0.000000000000
  0.000000000000  0.946257502500  0.000000000000  0.000000000000  0.000000000000
  0.000000000000  0.000000000000 -0.269972953200  0.000000000000  0.000000000000
  0.000000000000  0.000000000000  0.364632256200  0.000000000000  0.000000000000
  0.000000000000  0.000000000000  0.810753264500  0.000000000000  0.000000000000
  0.000000000000  0.000000000000  0.000000000000 -0.268825016800  0.000000000000
  0.000000000000  0.000000000000  0.000000000000  1.128982555000  0.000000000000
  0.000000000000  0.000000000000  0.000000000000  0.000000000000  1.000000000000
* p-type functions
    9    4
         71.55720000
         15.43894240
          4.47455105
          4.12127529
          1.18862064
       3756.73835e-4
       2445.76558e-4
       3897.17494e-5
       1606.25463e-5
  0.133965425100  0.000000000000  0.000000000000  0.000000000000
  0.530267272300  0.000000000000  0.000000000000  0.000000000000
  0.511799184200  0.000000000000  0.000000000000  0.000000000000
  0.000000000000  0.019949222900  0.000000000000  0.000000000000
  0.000000000000  0.434021301900  0.000000000000  0.000000000000
  0.000000000000  0.645322570900  0.000000000000  0.000000000000
  0.000000000000  0.000000000000  0.000308103547  0.000000000000
  0.000000000000  0.000000000000  0.999878716000  0.000000000000
  0.000000000000  0.000000000000  0.000000000000  1.000000000000

/Ca.3-21G.Dobbs.12s9p.5s4p.
K.D. Dobbs, W.J. Hehre. J. Comput. Chem. 7 (1986) 359-378. doi:10.1002/jcc.540070313
CALCIUM (12s,9p) -> [5s,4p]
    20.0   1
* s-type functions
   12    5
       1915.43480000
        289.53324000
         63.10635200
         80.39744200
         17.33075030
          5.08362380
          4.78222942
          1.46255792
       4792.22956e-4
       4396.82424e-4
       5913.04016e-5
       2389.70117e-5
  0.064623697910  0.000000000000  0.000000000000  0.000000000000  0.000000000000
  0.379837587700  0.000000000000  0.000000000000  0.000000000000  0.000000000000
  0.678329378100  0.000000000000  0.000000000000  0.000000000000  0.000000000000
  0.000000000000 -0.109302780000  0.000000000000  0.000000000000  0.000000000000
  0.000000000000  0.108899576000  0.000000000000  0.000000000000  0.000000000000
  0.000000000000  0.949276753700  0.000000000000  0.000000000000  0.000000000000
  0.000000000000  0.000000000000 -0.281607377100  0.000000000000  0.000000000000
  0.000000000000  0.000000000000  0.341051024100  0.000000000000  0.000000000000
  0.000000000000  0.000000000000  0.838104404300  0.000000000000  0.000000000000
  0.000000000000  0.000000000000  0.000000000000 -0.269704857000  0.000000000000
  0.000000000000  0.000000000000  0.000000000000  1.113292710000  0.000000000000
  0.000000000000  0.000000000000  0.000000000000  0.000000000000  1.000000000000
* p-type functions
    9    4
         80.39744200
         17.33075030
          5.08362380
          4.78222942
          1.46255792
       4792.22956e-4
       4396.82424e-4
       5913.04016e-5
       2389.70117e-5
  0.135433159000  0.000000000000  0.000000000000  0.000000000000
  0.537221457900  0.000000000000  0.000000000000  0.000000000000
  0.501804382900  0.000000000000  0.000000000000  0.000000000000
  0.000000000000  0.019009277290  0.000000000000  0.000000000000
  0.000000000000  0.436037732900  0.000000000000  0.000000000000
  0.000000000000  0.638670925800  0.000000000000  0.000000000000
  0.000000000000  0.000000000000  0.000308110507  0.000000000000
  0.000000000000  0.000000000000  0.999896413900  0.000000000000
  0.000000000000  0.000000000000  0.000000000000  1.000000000000

/Sc.3-21G.Dobbs.12s9p3d.5s4p2d.
K.D. Dobbs, W.J. Hehre. J. Comput. Chem. 8 (1987) 861-879. doi:10.1002/jcc.540080614
SCANDIUM (12s,9p,3d) -> [5s,4p,2d]
Options
Cartesian d
EndOptions
    21.0   2
* s-type functions
   12    5
       2119.88740000
        320.42986000
         69.89892800
         89.76450310
         19.38509550
          5.73142309
          5.49193764
          1.74374151
       5662.27342e-4
       5168.01508e-4
       6721.40384e-5
       2598.45179e-5
  0.064420798480  0.000000000000  0.000000000000  0.000000000000  0.000000000000
  0.379160291100  0.000000000000  0.000000000000  0.000000000000  0.000000000000
  0.678962884000  0.000000000000  0.000000000000  0.000000000000  0.000000000000
  0.000000000000 -0.109383705000  0.000000000000  0.000000000000  0.000000000000
  0.000000000000  0.105069872000  0.000000000000  0.000000000000  0.000000000000
  0.000000000000  0.952204546000  0.000000000000  0.000000000000  0.000000000000
  0.000000000000  0.000000000000 -0.285210740000  0.000000000000  0.000000000000
  0.000000000000  0.000000000000  0.324155542000  0.000000000000  0.000000000000
  0.000000000000  0.000000000000  0.856592052900  0.000000000000  0.000000000000
  0.000000000000  0.000000000000  0.000000000000 -0.262677979400  0.000000000000
  0.000000000000  0.000000000000  0.000000000000  1.108078977000  0.000000000000
  0.000000000000  0.000000000000  0.000000000000  0.000000000000  1.000000000000
* p-type functions
    9    4
         89.76450310
         19.38509550
          5.73142309
          5.49193764
          1.74374151
       5662.27342e-4
       5168.01508e-4
       6721.40384e-5
       2598.45179e-5
  0.136327806900  0.000000000000  0.000000000000  0.000000000000
  0.541859783500  0.000000000000  0.000000000000  0.000000000000
  0.495055071500  0.000000000000  0.000000000000  0.000000000000
  0.000000000000  0.017613559710  0.000000000000  0.000000000000
  0.000000000000  0.433644824200  0.000000000000  0.000000000000
  0.000000000000  0.642550695200  0.000000000000  0.000000000000
  0.000000000000  0.000000000000  3.270566751e-4  0.000000000000
  0.000000000000  0.000000000000  0.999893509300  0.000000000000
  0.000000000000  0.000000000000  0.000000000000  1.000000000000
* d-type functions
    3    2
          5.72221480
          1.36084950
          0.32265162
  0.265236447900  0.000000000000
  0.855860539800  0.000000000000
  0.000000000000  1.000000000000

/Ti.3-21G.Dobbs.12s9p3d.5s4p2d.
K.D. Dobbs, W.J. Hehre. J. Comput. Chem. 8 (1987) 861-879. doi:10.1002/jcc.540080614
TITANIUM (12s,9p,3d) -> [5s,4p,2d]
Options
Cartesian d
EndOptions
    22.0   2
* s-type functions
   12    5
       2335.01980000
        353.04415000
         77.05845200
         99.57387050
         21.54670630
          6.41396547
          6.23827944
          1.99610751
       6464.89872e-4
       5732.84881e-4
        731.19423e-4
       2653.79378e-5
  0.064216601180  0.000000000000  0.000000000000  0.000000000000  0.000000000000
  0.378412006900  0.000000000000  0.000000000000  0.000000000000  0.000000000000
  0.679681312500  0.000000000000  0.000000000000  0.000000000000  0.000000000000
  0.000000000000 -0.109471907000  0.000000000000  0.000000000000  0.000000000000
  0.000000000000  0.101942671000  0.000000000000  0.000000000000  0.000000000000
  0.000000000000  0.954622376700  0.000000000000  0.000000000000  0.000000000000
  0.000000000000  0.000000000000 -0.286137163000  0.000000000000  0.000000000000
  0.000000000000  0.000000000000  0.321827760000  0.000000000000  0.000000000000
  0.000000000000  0.000000000000  0.859551099900  0.000000000000  0.000000000000
  0.000000000000  0.000000000000  0.000000000000 -0.242449998800  0.000000000000
  0.000000000000  0.000000000000  0.000000000000  1.100074629000  0.000000000000
  0.000000000000  0.000000000000  0.000000000000  0.000000000000  1.000000000000
* p-type functions
    9    4
         99.57387050
         21.54670630
          6.41396547
          6.23827944
          1.99610751
       6464.89872e-4
       5732.84881e-4
        731.19423e-4
       2653.79378e-5
  0.137296603000  0.000000000000  0.000000000000  0.000000000000
  0.545875347900  0.000000000000  0.000000000000  0.000000000000
  0.489068087900  0.000000000000  0.000000000000  0.000000000000
  0.000000000000  0.019236650800  0.000000000000  0.000000000000
  0.000000000000  0.440442159000  0.000000000000  0.000000000000
  0.000000000000  0.635619507000  0.000000000000  0.000000000000
  0.000000000000  0.000000000000  2.920157911e-4  0.000000000000
  0.000000000000  0.000000000000  0.999906695400  0.000000000000
  0.000000000000  0.000000000000  0.000000000000  1.000000000000
* d-type functions
    3    2
          7.08366610
          1.70963410
          0.41412248
  0.262920995100  0.000000000000
  0.855772083200  0.000000000000
  0.000000000000  1.000000000000

/V.3-21G.Dobbs.12s9p3d.5s4p2d.
K.D. Dobbs, W.J. Hehre. J. Comput. Chem. 8 (1987) 861-879. doi:10.1002/jcc.540080614
VANADIUM (12s,9p,3d) -> [5s,4p,2d]
Options
Cartesian d
EndOptions
    23.0   2
* s-type functions
   12    5
       2563.87720000
        387.53404000
         84.59822900
        109.79382100
         23.76921260
          7.12296144
          6.98120403
          2.21983920
       7198.03015e-4
       6312.61952e-4
       8006.16624e-5
       2886.48917e-5
  0.063947500870  0.000000000000  0.000000000000  0.000000000000  0.000000000000
  0.377594005100  0.000000000000  0.000000000000  0.000000000000  0.000000000000
  0.680542109300  0.000000000000  0.000000000000  0.000000000000  0.000000000000
  0.000000000000 -0.109835531000  0.000000000000  0.000000000000  0.000000000000
  0.000000000000  0.100707039000  0.000000000000  0.000000000000  0.000000000000
  0.000000000000  0.955632720300  0.000000000000  0.000000000000  0.000000000000
  0.000000000000  0.000000000000 -0.288458811800  0.000000000000  0.000000000000
  0.000000000000  0.000000000000  0.336435699800  0.000000000000  0.000000000000
  0.000000000000  0.000000000000  0.848190323400  0.000000000000  0.000000000000
  0.000000000000  0.000000000000  0.000000000000 -0.236489879000  0.000000000000
  0.000000000000  0.000000000000  0.000000000000  1.097720655000  0.000000000000
  0.000000000000  0.000000000000  0.000000000000  0.000000000000  1.000000000000
* p-type functions
    9    4
        109.79382100
         23.76921260
          7.12296144
          6.98120403
          2.21983920
       7198.03015e-4
       6312.61952e-4
       8006.16624e-5
       2886.48917e-5
  0.138420969000  0.000000000000  0.000000000000  0.000000000000
  0.550489417000  0.000000000000  0.000000000000  0.000000000000
  0.482416532000  0.000000000000  0.000000000000  0.000000000000
  0.000000000000  0.021820754300  0.000000000000  0.000000000000
  0.000000000000  0.456761575900  0.000000000000  0.000000000000
  0.000000000000  0.618674960900  0.000000000000  0.000000000000
  0.000000000000  0.000000000000  0.000189953582  0.000000000000
  0.000000000000  0.000000000000  0.999939644900  0.000000000000
  0.000000000000  0.000000000000  0.000000000000  1.000000000000
* d-type functions
    3    2
          8.34291690
          2.03294410
          0.49571154
  0.264062000000  0.000000000000
  0.853966483100  0.000000000000
  0.000000000000  1.000000000000

/Cr.3-21G.Dobbs.12s9p3d.5s4p2d.
K.D. Dobbs, W.J. Hehre. J. Comput. Chem. 8 (1987) 861-879. doi:10.1002/jcc.540080614
CHROMIUM (12s,9p,3d) -> [5s,4p,2d]
Options
Cartesian d
EndOptions
    24.0   2
* s-type functions
   12    5
       2798.29440000
        423.13696000
         92.43886100
        120.28056200
         26.03727080
          7.84417248
          7.79327565
          2.49719613
       8051.41892e-4
       7039.20564e-4
       8616.19533e-5
       3219.88193e-5
  0.063823795060  0.000000000000  0.000000000000  0.000000000000  0.000000000000
  0.377083970800  0.000000000000  0.000000000000  0.000000000000  0.000000000000
  0.680988847300  0.000000000000  0.000000000000  0.000000000000  0.000000000000
  0.000000000000 -0.117779001000  0.000000000000  0.000000000000  0.000000000000
  0.000000000000  0.101431123000  0.000000000000  0.000000000000  0.000000000000
  0.000000000000  0.957198137700  0.000000000000  0.000000000000  0.000000000000
  0.000000000000  0.000000000000 -0.288856713100  0.000000000000  0.000000000000
  0.000000000000  0.000000000000  0.335114684100  0.000000000000  0.000000000000
  0.000000000000  0.000000000000  0.850248097300  0.000000000000  0.000000000000
  0.000000000000  0.000000000000  0.000000000000 -0.232250769100  0.000000000000
  0.000000000000  0.000000000000  0.000000000000  1.093671325000  0.000000000000
  0.000000000000  0.000000000000  0.000000000000  0.000000000000  1.000000000000
* p-type functions
    9    4
        120.28056200
         26.03727080
          7.84417248
          7.79327565
          2.49719613
       8051.41892e-4
       7039.20564e-4
       8616.19533e-5
       3219.88193e-5
  0.139878183000  0.000000000000  0.000000000000  0.000000000000
  0.555983448200  0.000000000000  0.000000000000  0.000000000000
  0.474818348200  0.000000000000  0.000000000000  0.000000000000
  0.000000000000  0.022184709200  0.000000000000  0.000000000000
  0.000000000000  0.461624995100  0.000000000000  0.000000000000
  0.000000000000  0.614538613100  0.000000000000  0.000000000000
  0.000000000000  0.000000000000  0.000179964484  0.000000000000
  0.000000000000  0.000000000000  0.999944761100  0.000000000000
  0.000000000000  0.000000000000  0.000000000000  1.000000000000
* d-type functions
    3    2
          9.62533860
          2.36226430
          0.57709440
  0.265595910000  0.000000000000
  0.852155680100  0.000000000000
  0.000000000000  1.000000000000

/Mn.3-21G.Dobbs.12s9p3d.5s4p2d.
K.D. Dobbs, W.J. Hehre. J. Comput. Chem. 8 (1987) 861-879. doi:10.1002/jcc.540080614
MANGANESE (12s,9p,3d) -> [5s,4p,2d]
Options
Cartesian d
EndOptions
    25.0   2
* s-type functions
   12    5
       3041.68590000
        460.09006000
        100.59577000
        131.76731400
         28.56915210
          8.66050106
          8.56908067
          2.76817845
          0.88728821
       7674.42616e-4
       9202.52674e-5
       3326.48975e-5
  0.063744898960  0.000000000000  0.000000000000  0.000000000000  0.000000000000
  0.376748993900  0.000000000000  0.000000000000  0.000000000000  0.000000000000
  0.681247388900  0.000000000000  0.000000000000  0.000000000000  0.000000000000
  0.000000000000 -0.110296367000  0.000000000000  0.000000000000  0.000000000000
  0.000000000000  0.098189633620  0.000000000000  0.000000000000  0.000000000000
  0.000000000000  0.957659469200  0.000000000000  0.000000000000  0.000000000000
  0.000000000000  0.000000000000 -0.291713546000  0.000000000000  0.000000000000
  0.000000000000  0.000000000000  0.343963014100  0.000000000000  0.000000000000
  0.000000000000  0.000000000000  0.845197460100  0.000000000000  0.000000000000
  0.000000000000  0.000000000000  0.000000000000 -0.230003885100  0.000000000000
  0.000000000000  0.000000000000  0.000000000000  1.091450305000  0.000000000000
  0.000000000000  0.000000000000  0.000000000000  0.000000000000  1.000000000000
* p-type functions
    9    4
        131.76731400
         28.56915210
          8.66050106
          8.56908067
          2.76817845
          0.88728821
       7674.42616e-4
       9202.52674e-5
       3326.48975e-5
  0.140454015900  0.000000000000  0.000000000000  0.000000000000
  0.557802228800  0.000000000000  0.000000000000  0.000000000000
  0.471500617800  0.000000000000  0.000000000000  0.000000000000
  0.000000000000  0.024223788820  0.000000000000  0.000000000000
  0.000000000000  0.468659761300  0.000000000000  0.000000000000
  0.000000000000  0.607421126400  0.000000000000  0.000000000000
  0.000000000000  0.000000000000  3.078885511e-4  0.000000000000
  0.000000000000  0.000000000000  0.999907362300  0.000000000000
  0.000000000000  0.000000000000  0.000000000000  1.000000000000
* d-type functions
    3    2
         11.06883900
          2.73070680
          0.66850948
  0.265271809900  0.000000000000
  0.851794479600  0.000000000000
  0.000000000000  1.000000000000

/Fe.3-21G.Dobbs.12s9p3d.5s4p2d.
K.D. Dobbs, W.J. Hehre. J. Comput. Chem. 8 (1987) 861-879. doi:10.1002/jcc.540080614
IRON (12s,9p,3d) -> [5s,4p,2d]
Options
Cartesian d
EndOptions
    26.0   2
* s-type functions
   12    5
       3299.18370000
        499.08856000
        109.16137000
        143.46517300
         31.16857540
          9.48361240
          9.46456490
          3.10037344
       9864.93009e-4
       8534.12341e-4
        988.12218e-4
       3644.21376e-5
  0.063585899710  0.000000000000  0.000000000000  0.000000000000  0.000000000000
  0.376201598300  0.000000000000  0.000000000000  0.000000000000  0.000000000000
  0.681784496900  0.000000000000  0.000000000000  0.000000000000  0.000000000000
  0.000000000000 -0.110551719000  0.000000000000  0.000000000000  0.000000000000
  0.000000000000  0.096846809190  0.000000000000  0.000000000000  0.000000000000
  0.000000000000  0.958797438900  0.000000000000  0.000000000000  0.000000000000
  0.000000000000  0.000000000000 -0.292055518800  0.000000000000  0.000000000000
  0.000000000000  0.000000000000  0.337523591800  0.000000000000  0.000000000000
  0.000000000000  0.000000000000  0.851941629400  0.000000000000  0.000000000000
  0.000000000000  0.000000000000  0.000000000000 -0.227944113000  0.000000000000
  0.000000000000  0.000000000000  0.000000000000  1.088287380000  0.000000000000
  0.000000000000  0.000000000000  0.000000000000  0.000000000000  1.000000000000
* p-type functions
    9    4
        143.46517300
         31.16857540
          9.48361240
          9.46456490
          3.10037344
       9864.93009e-4
       8534.12341e-4
        988.12218e-4
       3644.21376e-5
  0.141100612000  0.000000000000  0.000000000000  0.000000000000
  0.560387367100  0.000000000000  0.000000000000  0.000000000000
  0.467644354000  0.000000000000  0.000000000000  0.000000000000
  0.000000000000  0.023762013000  0.000000000000  0.000000000000
  0.000000000000  0.468911282100  0.000000000000  0.000000000000
  0.000000000000  0.608311267100  0.000000000000  0.000000000000
  0.000000000000  0.000000000000 -4.262652045e-4  0.000000000000
  0.000000000000  0.000000000000  1.000123759000  0.000000000000
  0.000000000000  0.000000000000  0.000000000000  1.000000000000
* d-type functions
    3    2
         12.35448930
          3.05560530
          0.73859089
  0.268610988100  0.000000000000
  0.849271665400  0.000000000000
  0.000000000000  1.000000000000

/Co.3-21G.Dobbs.12s9p3d.5s4p2d.
K.D. Dobbs, W.J. Hehre. J. Comput. Chem. 8 (1987) 861-879. doi:10.1002/jcc.540080614
COBALT (12s,9p,3d) -> [5s,4p,2d]
Options
Cartesian d
EndOptions
    27.0   2
* s-type functions
   12    5
       3564.76220000
        539.39085000
        118.04489000
        155.43824800
         33.81561360
         10.33323420
         10.38152410
          3.38271434
          1.07695385
       9090.15549e-4
          0.10504056
       3725.65763e-5
  0.063486603280  0.000000000000  0.000000000000  0.000000000000  0.000000000000
  0.375818119400  0.000000000000  0.000000000000  0.000000000000  0.000000000000
  0.682121735300  0.000000000000  0.000000000000  0.000000000000  0.000000000000
  0.000000000000 -0.110986721000  0.000000000000  0.000000000000  0.000000000000
  0.000000000000  0.096767416120  0.000000000000  0.000000000000  0.000000000000
  0.000000000000  0.958992122200  0.000000000000  0.000000000000  0.000000000000
  0.000000000000  0.000000000000 -0.292262177800  0.000000000000  0.000000000000
  0.000000000000  0.000000000000  0.343250727800  0.000000000000  0.000000000000
  0.000000000000  0.000000000000  0.846963444400  0.000000000000  0.000000000000
  0.000000000000  0.000000000000  0.000000000000 -0.217459920200  0.000000000000
  0.000000000000  0.000000000000  0.000000000000  1.084998461000  0.000000000000
  0.000000000000  0.000000000000  0.000000000000  0.000000000000  1.000000000000
* p-type functions
    9    4
        155.43824800
         33.81561360
         10.33323420
         10.38152410
          3.38271434
          1.07695385
       9090.15549e-4
          0.10504056
       3725.65763e-5
  0.142064159000  0.000000000000  0.000000000000  0.000000000000
  0.563443869100  0.000000000000  0.000000000000  0.000000000000
  0.463024428100  0.000000000000  0.000000000000  0.000000000000
  0.000000000000  0.026313260500  0.000000000000  0.000000000000
  0.000000000000  0.476917034900  0.000000000000  0.000000000000
  0.000000000000  0.599154275900  0.000000000000  0.000000000000
  0.000000000000  0.000000000000  0.000228442840  0.000000000000
  0.000000000000  0.000000000000  0.999933738000  0.000000000000
  0.000000000000  0.000000000000  0.000000000000  1.000000000000
* d-type functions
    3    2
         13.74069800
          3.40898290
          0.81864095
  0.270954981200  0.000000000000
  0.847342055500  0.000000000000
  0.000000000000  1.000000000000

/Ni.3-21G.Dobbs.12s9p3d.5s4p2d.
K.D. Dobbs, W.J. Hehre. J. Comput. Chem. 8 (1987) 861-879. doi:10.1002/jcc.540080614
NICKEL (12s,9p,3d) -> [5s,4p,2d]
Options
Cartesian d
EndOptions
    28.0   2
* s-type functions
   12    5
       3848.00510000
        582.03069000
        127.36744000
        168.28958300
         36.65633040
         11.23212360
         11.35877310
          3.73884622
          1.18246270
       9889.03841e-4
       1110.24964e-4
       3925.82249e-5
  0.063266098470  0.000000000000  0.000000000000  0.000000000000  0.000000000000
  0.375170990900  0.000000000000  0.000000000000  0.000000000000  0.000000000000
  0.682823783500  0.000000000000  0.000000000000  0.000000000000  0.000000000000
  0.000000000000 -0.111115076000  0.000000000000  0.000000000000  0.000000000000
  0.000000000000  0.095323801080  0.000000000000  0.000000000000  0.000000000000
  0.000000000000  0.960161285800  0.000000000000  0.000000000000  0.000000000000
  0.000000000000  0.000000000000 -0.292060392100  0.000000000000  0.000000000000
  0.000000000000  0.000000000000  0.337540723100  0.000000000000  0.000000000000
  0.000000000000  0.000000000000  0.852532981300  0.000000000000  0.000000000000
  0.000000000000  0.000000000000  0.000000000000 -0.213687221700  0.000000000000
  0.000000000000  0.000000000000  0.000000000000  1.081932884000  0.000000000000
  0.000000000000  0.000000000000  0.000000000000  0.000000000000  1.000000000000
* p-type functions
    9    4
        168.28958300
         36.65633040
         11.23212360
         11.35877310
          3.73884622
          1.18246270
       9889.03841e-4
       1110.24964e-4
       3925.82249e-5
  0.142490490000  0.000000000000  0.000000000000  0.000000000000
  0.565546996000  0.000000000000  0.000000000000  0.000000000000
  0.459992587000  0.000000000000  0.000000000000  0.000000000000
  0.000000000000  0.026137624600  0.000000000000  0.000000000000
  0.000000000000  0.476597996900  0.000000000000  0.000000000000
  0.000000000000  0.600379841900  0.000000000000  0.000000000000
  0.000000000000  0.000000000000  0.000294351409  0.000000000000
  0.000000000000  0.000000000000  0.999917023200  0.000000000000
  0.000000000000  0.000000000000  0.000000000000  1.000000000000
* d-type functions
    3    2
         15.22069400
          3.78602010
          0.90455739
  0.272605966000  0.000000000000
  0.845927907000  0.000000000000
  0.000000000000  1.000000000000

/Cu.3-21G.Dobbs.12s9p3d.5s4p2d.
K.D. Dobbs, W.J. Hehre. J. Comput. Chem. 8 (1987) 861-879. doi:10.1002/jcc.540080614
COPPER (12s,9p,3d) -> [5s,4p,2d]
Options
Cartesian d
EndOptions
    29.0   2
* s-type functions
   12    5
       4134.30220000
        625.49122000
        136.95556000
        181.49603300
         39.57431190
         12.16246380
         12.35111490
          4.04965102
          1.27922538
          1.04829994
       1171.18022e-4
       4054.49869e-5
  0.063187801340  0.000000000000  0.000000000000  0.000000000000  0.000000000000
  0.374844808000  0.000000000000  0.000000000000  0.000000000000  0.000000000000
  0.683100214500  0.000000000000  0.000000000000  0.000000000000  0.000000000000
  0.000000000000 -0.111319839000  0.000000000000  0.000000000000  0.000000000000
  0.000000000000  0.094486789110  0.000000000000  0.000000000000  0.000000000000
  0.000000000000  0.960879019100  0.000000000000  0.000000000000  0.000000000000
  0.000000000000  0.000000000000 -0.292223062900  0.000000000000  0.000000000000
  0.000000000000  0.000000000000  0.342990857900  0.000000000000  0.000000000000
  0.000000000000  0.000000000000  0.847946266700  0.000000000000  0.000000000000
  0.000000000000  0.000000000000  0.000000000000 -0.205498089500  0.000000000000
  0.000000000000  0.000000000000  0.000000000000  1.079158637000  0.000000000000
  0.000000000000  0.000000000000  0.000000000000  0.000000000000  1.000000000000
* p-type functions
    9    4
        181.49603300
         39.57431190
         12.16246380
         12.35111490
          4.04965102
          1.27922538
          1.04829994
       1171.18022e-4
       4054.49869e-5
  0.143084443100  0.000000000000  0.000000000000  0.000000000000
  0.567756101300  0.000000000000  0.000000000000  0.000000000000
  0.456714108200  0.000000000000  0.000000000000  0.000000000000
  0.000000000000  0.027727135390  0.000000000000  0.000000000000
  0.000000000000  0.483524417800  0.000000000000  0.000000000000
  0.000000000000  0.592977874800  0.000000000000  0.000000000000
  0.000000000000  0.000000000000  0.000198490005  0.000000000000
  0.000000000000  0.000000000000  0.999944327900  0.000000000000
  0.000000000000  0.000000000000  0.000000000000  1.000000000000
* d-type functions
    3    2
         16.75937600
          4.17897690
          0.99432704
  0.274112548100  0.000000000000
  0.844624486200  0.000000000000
  0.000000000000  1.000000000000

/Zn.3-21G.Dobbs.12s9p3d.5s4p2d.
K.D. Dobbs, W.J. Hehre. J. Comput. Chem. 8 (1987) 861-879. doi:10.1002/jcc.540080614
ZINC (12s,9p,3d) -> [5s,4p,2d]
Options
Cartesian d
EndOptions
    30.0   2
* s-type functions
   12    5
       4432.28850000
        670.66012000
        146.90245000
        195.00418700
         42.56889150
         13.12143450
         13.40230550
          4.39990638
          1.38514757
          1.12155801
          0.12294364
       4219.32724e-5
  0.063092804490  0.000000000000  0.000000000000  0.000000000000  0.000000000000
  0.374503826700  0.000000000000  0.000000000000  0.000000000000  0.000000000000
  0.683416048600  0.000000000000  0.000000000000  0.000000000000  0.000000000000
  0.000000000000 -0.111628336900  0.000000000000  0.000000000000  0.000000000000
  0.000000000000  0.094335528350  0.000000000000  0.000000000000  0.000000000000
  0.000000000000  0.961100246500  0.000000000000  0.000000000000  0.000000000000
  0.000000000000  0.000000000000 -0.291781113900  0.000000000000  0.000000000000
  0.000000000000  0.000000000000  0.342614547800  0.000000000000  0.000000000000
  0.000000000000  0.000000000000  0.848283983600  0.000000000000  0.000000000000
  0.000000000000  0.000000000000  0.000000000000 -0.202370625700  0.000000000000
  0.000000000000  0.000000000000  0.000000000000  1.077034778000  0.000000000000
  0.000000000000  0.000000000000  0.000000000000  0.000000000000  1.000000000000
* p-type functions
    9    4
        195.00418700
         42.56889150
         13.12143450
         13.40230550
          4.39990638
          1.38514757
          1.12155801
          0.12294364
       4219.32724e-5
  0.143805463000  0.000000000000  0.000000000000  0.000000000000
  0.570001876800  0.000000000000  0.000000000000  0.000000000000
  0.453311854900  0.000000000000  0.000000000000  0.000000000000
  0.000000000000  0.028705282320  0.000000000000  0.000000000000
  0.000000000000  0.486251467400  0.000000000000  0.000000000000
  0.000000000000  0.590235252500  0.000000000000  0.000000000000
  0.000000000000  0.000000000000  3.440940799e-4  0.000000000000
  0.000000000000  0.000000000000  0.999905283800  0.000000000000
  0.000000000000  0.000000000000  0.000000000000  1.000000000000
* d-type functions
    3    2
         18.36820200
          4.59130410
          1.09020260
  0.275385630900  0.000000000000
  0.843477289700  0.000000000000
  0.000000000000  1.000000000000

/Ga.3-21G.Dobbs.12s9p3d.5s4p1d.
K.D. Dobbs, W.J. Hehre. J. Comput. Chem. 7 (1986) 359-378. doi:10.1002/jcc.540070313
GALLIUM (12s,9p,3d) -> [5s,4p,1d]
Options
Cartesian d
EndOptions
    31.0   2
* s-type functions
   12    5
       4751.89790000
        718.92054000
        157.44592000
        209.58343800
         45.69171330
         14.13296880
         14.59953900
          4.86084213
          1.54911070
          1.26794277
       1883.99538e-4
       5723.67557e-5
  0.062839604390  0.000000000000  0.000000000000  0.000000000000  0.000000000000
  0.373611226100  0.000000000000  0.000000000000  0.000000000000  0.000000000000
  0.684362647800  0.000000000000  0.000000000000  0.000000000000  0.000000000000
  0.000000000000 -0.111516157000  0.000000000000  0.000000000000  0.000000000000
  0.000000000000  0.092696363820  0.000000000000  0.000000000000  0.000000000000
  0.000000000000  0.962287057200  0.000000000000  0.000000000000  0.000000000000
  0.000000000000  0.000000000000  0.291029241000  0.000000000000  0.000000000000
  0.000000000000  0.000000000000 -0.323187587000  0.000000000000  0.000000000000
  0.000000000000  0.000000000000 -0.864391051000  0.000000000000  0.000000000000
  0.000000000000  0.000000000000  0.000000000000 -0.285130629200  0.000000000000
  0.000000000000  0.000000000000  0.000000000000  1.128022057000  0.000000000000
  0.000000000000  0.000000000000  0.000000000000  0.000000000000  1.000000000000
* p-type functions
    9    4
        209.58343800
         45.69171330
         14.13296880
         14.59953900
          4.86084213
          1.54911070
          1.26794277
       1883.99538e-4
       5723.67557e-5
  0.144265839900  0.000000000000  0.000000000000  0.000000000000
  0.573177519800  0.000000000000  0.000000000000  0.000000000000
  0.449085776800  0.000000000000  0.000000000000  0.000000000000
  0.000000000000  0.026561859600  0.000000000000  0.000000000000
  0.000000000000  0.483313663000  0.000000000000  0.000000000000
  0.000000000000  0.592430382000  0.000000000000  0.000000000000
  0.000000000000  0.000000000000  0.030183464010  0.000000000000
  0.000000000000  0.000000000000  0.988465828400  0.000000000000
  0.000000000000  0.000000000000  0.000000000000  1.000000000000
* d-type functions
    3    1
         21.29253000
          5.39316620
          1.33388280
  0.161989502600
  0.511673908300
  0.589873209600

/Ge.3-21G.Dobbs.12s9p3d.5s4p1d.
K.D. Dobbs, W.J. Hehre. J. Comput. Chem. 7 (1986) 359-378. doi:10.1002/jcc.540070313
GERMANIUM (12s,9p,3d) -> [5s,4p,1d]
Options
Cartesian d
EndOptions
    32.0   2
* s-type functions
   12    5
       5073.74990000
        767.72417000
        168.18881000
        224.43602700
         48.95542850
         15.18370510
         15.91257150
          5.44143679
          1.74260323
          1.46653846
       2630.93359e-4
       8482.07176e-5
  0.062724900860  0.000000000000  0.000000000000  0.000000000000  0.000000000000
  0.373167105100  0.000000000000  0.000000000000  0.000000000000  0.000000000000
  0.684786709300  0.000000000000  0.000000000000  0.000000000000  0.000000000000
  0.000000000000 -0.111514985000  0.000000000000  0.000000000000  0.000000000000
  0.000000000000  0.091200213600  0.000000000000  0.000000000000  0.000000000000
  0.000000000000  0.963449085000  0.000000000000  0.000000000000  0.000000000000
  0.000000000000  0.000000000000 -0.289565227900  0.000000000000  0.000000000000
  0.000000000000  0.000000000000  0.293882827900  0.000000000000  0.000000000000
  0.000000000000  0.000000000000  0.889199322800  0.000000000000  0.000000000000
  0.000000000000  0.000000000000  0.000000000000 -0.396733903400  0.000000000000
  0.000000000000  0.000000000000  0.000000000000  1.190669835000  0.000000000000
  0.000000000000  0.000000000000  0.000000000000  0.000000000000  1.000000000000
* p-type functions
    9    4
        224.43602700
         48.95542850
         15.18370510
         15.91257150
          5.44143679
          1.74260323
          1.46653846
       2630.93359e-4
       8482.07176e-5
  0.144639531000  0.000000000000  0.000000000000  0.000000000000
  0.575379561800  0.000000000000  0.000000000000  0.000000000000
  0.445994860900  0.000000000000  0.000000000000  0.000000000000
  0.000000000000  0.022973021610  0.000000000000  0.000000000000
  0.000000000000  0.473244659200  0.000000000000  0.000000000000
  0.000000000000  0.603277898300  0.000000000000  0.000000000000
  0.000000000000  0.000000000000  0.027892939990  0.000000000000
  0.000000000000  0.000000000000  0.987490093700  0.000000000000
  0.000000000000  0.000000000000  0.000000000000  1.000000000000
* d-type functions
    3    1
         24.32142100
          6.22381350
          1.58873750
  0.157798499400
  0.511492198000
  0.585770297700

/As.3-21G.Dobbs.12s9p3d.5s4p1d.
K.D. Dobbs, W.J. Hehre. J. Comput. Chem. 7 (1986) 359-378. doi:10.1002/jcc.540070313
ARSENIC (12s,9p,3d) -> [5s,4p,1d]
Options
Cartesian d
EndOptions
    33.0   2
* s-type functions
   12    5
       5407.61380000
        818.17436000
        179.26569000
        237.77828800
         54.25662270
         16.32802910
         17.10185320
          5.80514411
          1.90208419
          1.67540361
       3416.55706e-4
       1136.30312e-4
  0.062601100380  0.000000000000  0.000000000000  0.000000000000  0.000000000000
  0.372779002200  0.000000000000  0.000000000000  0.000000000000  0.000000000000
  0.685184204100  0.000000000000  0.000000000000  0.000000000000  0.000000000000
  0.000000000000 -0.112838429000  0.000000000000  0.000000000000  0.000000000000
  0.000000000000  0.087227437900  0.000000000000  0.000000000000  0.000000000000
  0.000000000000  0.968188275000  0.000000000000  0.000000000000  0.000000000000
  0.000000000000  0.000000000000 -0.291453677900  0.000000000000  0.000000000000
  0.000000000000  0.000000000000  0.296961891900  0.000000000000  0.000000000000
  0.000000000000  0.000000000000  0.886579103700  0.000000000000  0.000000000000
  0.000000000000  0.000000000000  0.000000000000 -0.505760965500  0.000000000000
  0.000000000000  0.000000000000  0.000000000000  1.251764524000  0.000000000000
  0.000000000000  0.000000000000  0.000000000000  0.000000000000  1.000000000000
* p-type functions
    9    4
        237.77828800
         54.25662270
         16.32802910
         17.10185320
          5.80514411
          1.90208419
          1.67540361
       3416.55706e-4
       1136.30312e-4
  0.149679775000  0.000000000000  0.000000000000  0.000000000000
  0.562322265200  0.000000000000  0.000000000000  0.000000000000
  0.459323497100  0.000000000000  0.000000000000  0.000000000000
  0.000000000000  0.025685591790  0.000000000000  0.000000000000
  0.000000000000  0.483396806900  0.000000000000  0.000000000000
  0.000000000000  0.588785395900  0.000000000000  0.000000000000
  0.000000000000  0.000000000000  0.025282465990  0.000000000000
  0.000000000000  0.000000000000  0.987432835800  0.000000000000
  0.000000000000  0.000000000000  0.000000000000  1.000000000000
* d-type functions
    3    1
         27.43720900
          7.08404400
          1.85582260
  0.154495205300
  0.511431817600
  0.582193520100

/Se.3-21G.Dobbs.12s9p3d.5s4p1d.
K.D. Dobbs, W.J. Hehre. J. Comput. Chem. 7 (1986) 359-378. doi:10.1002/jcc.540070313
SELENIUM (12s,9p,3d) -> [5s,4p,1d]
Options
Cartesian d
EndOptions
    34.0   2
* s-type functions
   12    5
       5751.32150000
        870.25721000
        190.72949000
        255.01639600
         55.57653980
         17.35661220
         18.44567560
          6.32875867
          2.09675763
          1.87263333
       4174.73644e-4
       1370.90693e-4
  0.062493402400  0.000000000000  0.000000000000  0.000000000000  0.000000000000
  0.372368314300  0.000000000000  0.000000000000  0.000000000000  0.000000000000
  0.685579926300  0.000000000000  0.000000000000  0.000000000000  0.000000000000
  0.000000000000 -0.111907632900  0.000000000000  0.000000000000  0.000000000000
  0.000000000000  0.090999358060  0.000000000000  0.000000000000  0.000000000000
  0.000000000000  0.963668173500  0.000000000000  0.000000000000  0.000000000000
  0.000000000000  0.000000000000 -0.291792508900  0.000000000000  0.000000000000
  0.000000000000  0.000000000000  0.284621183900  0.000000000000  0.000000000000
  0.000000000000  0.000000000000  0.897305192600  0.000000000000  0.000000000000
  0.000000000000  0.000000000000  0.000000000000 -0.567763874900  0.000000000000
  0.000000000000  0.000000000000  0.000000000000  1.294126620000  0.000000000000
  0.000000000000  0.000000000000  0.000000000000  0.000000000000  1.000000000000
* p-type functions
    9    4
        255.01639600
         55.57653980
         17.35661220
         18.44567560
          6.32875867
          2.09675763
          1.87263333
       4174.73644e-4
       1370.90693e-4
  0.146148811000  0.000000000000  0.000000000000  0.000000000000
  0.581371392100  0.000000000000  0.000000000000  0.000000000000
  0.437459745000  0.000000000000  0.000000000000  0.000000000000
  0.000000000000  0.024421409690  0.000000000000  0.000000000000
  0.000000000000  0.483364827800  0.000000000000  0.000000000000
  0.000000000000  0.587903804800  0.000000000000  0.000000000000
  0.000000000000  0.000000000000  0.028255485000  0.000000000000
  0.000000000000  0.000000000000  0.984905964200  0.000000000000
  0.000000000000  0.000000000000  0.000000000000  1.000000000000
* d-type functions
    3    1
         30.62746400
          7.97127640
          2.13480970
  0.151985796200
  0.511640287300
  0.578693585600

/Br.3-21G.Dobbs.12s9p3d.5s4p1d.
K.D. Dobbs, W.J. Hehre. J. Comput. Chem. 7 (1986) 359-378. doi:10.1002/jcc.540070313
BROMINE (12s,9p,3d) -> [5s,4p,1d]
Options
Cartesian d
EndOptions
    35.0   2
* s-type functions
   12    5
       6103.28990000
        923.69743000
        202.52031000
        270.60150600
         58.25357430
         18.46932670
         19.76142580
          6.82175178
          2.29162883
          2.13120558
       4993.53714e-4
       1647.63663e-4
  0.062417504530  0.000000000000  0.000000000000  0.000000000000  0.000000000000
  0.372041427000  0.000000000000  0.000000000000  0.000000000000  0.000000000000
  0.685872849800  0.000000000000  0.000000000000  0.000000000000  0.000000000000
  0.000000000000 -0.112148699900  0.000000000000  0.000000000000  0.000000000000
  0.000000000000  0.093144509250  0.000000000000  0.000000000000  0.000000000000
  0.000000000000  0.961679373500  0.000000000000  0.000000000000  0.000000000000
  0.000000000000  0.000000000000 -0.293870389000  0.000000000000  0.000000000000
  0.000000000000  0.000000000000  0.280266302000  0.000000000000  0.000000000000
  0.000000000000  0.000000000000  0.902035711100  0.000000000000  0.000000000000
  0.000000000000  0.000000000000  0.000000000000 -0.651803062900  0.000000000000
  0.000000000000  0.000000000000  0.000000000000  1.336012176000  0.000000000000
  0.000000000000  0.000000000000  0.000000000000  0.000000000000  1.000000000000
* p-type functions
    9    4
        270.60150600
         58.25357430
         18.46932670
         19.76142580
          6.82175178
          2.29162883
          2.13120558
       4993.53714e-4
       1647.63663e-4
  0.147751384000  0.000000000000  0.000000000000  0.000000000000
  0.601055694000  0.000000000000  0.000000000000  0.000000000000
  0.412870385000  0.000000000000  0.000000000000  0.000000000000
  0.000000000000  0.025007085190  0.000000000000  0.000000000000
  0.000000000000  0.486609801900  0.000000000000  0.000000000000
  0.000000000000  0.582423350800  0.000000000000  0.000000000000
  0.000000000000  0.000000000000  0.028708334010  0.000000000000
  0.000000000000  0.000000000000  0.984069539500  0.000000000000
  0.000000000000  0.000000000000  0.000000000000  1.000000000000
* d-type functions
    3    1
         33.96509700
          8.90083120
          2.42843600
  0.149666599800
  0.511747499300
  0.575914799200

/Kr.3-21G.Dobbs.12s9p3d.5s4p1d.
K.D. Dobbs, W.J. Hehre. J. Comput. Chem. 7 (1986) 359-378. doi:10.1002/jcc.540070313
KRYPTON (12s,9p,3d) -> [5s,4p,1d]
Options
Cartesian d
EndOptions
    36.0   2
* s-type functions
   12    5
       6446.63070000
        976.87570000
        214.47955000
        287.64462500
         62.62008730
         19.69174380
         21.12321280
          7.30328552
          2.48884989
          2.36137376
       5860.16049e-4
       1944.47348e-4
  0.062539800130  0.000000000000  0.000000000000  0.000000000000  0.000000000000
  0.372107500800  0.000000000000  0.000000000000  0.000000000000  0.000000000000
  0.685610701400  0.000000000000  0.000000000000  0.000000000000  0.000000000000
  0.000000000000 -0.112060714000  0.000000000000  0.000000000000  0.000000000000
  0.000000000000  0.090139132690  0.000000000000  0.000000000000  0.000000000000
  0.000000000000  0.964330110800  0.000000000000  0.000000000000  0.000000000000
  0.000000000000  0.000000000000 -0.295817324000  0.000000000000  0.000000000000
  0.000000000000  0.000000000000  0.279216683000  0.000000000000  0.000000000000
  0.000000000000  0.000000000000  0.903730305100  0.000000000000  0.000000000000
  0.000000000000  0.000000000000  0.000000000000 -0.720245425400  0.000000000000
  0.000000000000  0.000000000000  0.000000000000  1.376846015000  0.000000000000
  0.000000000000  0.000000000000  0.000000000000  0.000000000000  1.000000000000
* p-type functions
    9    4
        287.64462500
         62.62008730
         19.69174380
         21.12321280
          7.30328552
          2.48884989
          2.36137376
       5860.16049e-4
       1944.47348e-4
  0.147527902100  0.000000000000  0.000000000000  0.000000000000
  0.586891850300  0.000000000000  0.000000000000  0.000000000000
  0.429506773200  0.000000000000  0.000000000000  0.000000000000
  0.000000000000  0.026069548700  0.000000000000  0.000000000000
  0.000000000000  0.492249755000  0.000000000000  0.000000000000
  0.000000000000  0.574273749000  0.000000000000  0.000000000000
  0.000000000000  0.000000000000  0.028775177600  0.000000000000
  0.000000000000  0.000000000000  0.983339070100  0.000000000000
  0.000000000000  0.000000000000  0.000000000000  1.000000000000
* d-type functions
    3    1
         37.36810300
          9.85431310
          2.73279550
  0.147946605400
  0.512171918500
  0.572949820700

/Rb.3-21G.Dobbs.15s12p3d.6s5p1d.
K.D. Dobbs, W.J. Hehre. J. Comput. Chem. 7 (1986) 359-378. doi:10.1002/jcc.540070313
RUBIDIUM (15s,12p,3d) -> [6s,5p,1d]
Options
Cartesian d
EndOptions
    37.0   2
* s-type functions
   15    6
       6816.72250000
       1033.00070000
        226.90861000
        304.12831900
         66.26058030
         20.91944730
         22.46532550
          7.87746836
          2.70527125
          2.69211573
       7230.56288e-4
       2598.38259e-4
       1897.14021e-4
        339.97257e-4
       1471.23127e-5
  0.062496200500  0.000000000000  0.000000000000  0.000000000000  0.000000000000  0.000000000000
  0.371950002900  0.000000000000  0.000000000000  0.000000000000  0.000000000000  0.000000000000
  0.685729305400  0.000000000000  0.000000000000  0.000000000000  0.000000000000  0.000000000000
  0.000000000000 -0.112329617000  0.000000000000  0.000000000000  0.000000000000  0.000000000000
  0.000000000000  0.090750802380  0.000000000000  0.000000000000  0.000000000000  0.000000000000
  0.000000000000  0.963940990800  0.000000000000  0.000000000000  0.000000000000  0.000000000000
  0.000000000000  0.000000000000 -0.300484997000  0.000000000000  0.000000000000  0.000000000000
  0.000000000000  0.000000000000  0.278356575000  0.000000000000  0.000000000000  0.000000000000
  0.000000000000  0.000000000000  0.907609897000  0.000000000000  0.000000000000  0.000000000000
  0.000000000000  0.000000000000  0.000000000000 -0.331162342000  0.000000000000  0.000000000000
  0.000000000000  0.000000000000  0.000000000000  0.509699134000  0.000000000000  0.000000000000
  0.000000000000  0.000000000000  0.000000000000  0.698246143000  0.000000000000  0.000000000000
  0.000000000000  0.000000000000  0.000000000000  0.000000000000 -0.271192726400  0.000000000000
  0.000000000000  0.000000000000  0.000000000000  0.000000000000  1.141549502000  0.000000000000
  0.000000000000  0.000000000000  0.000000000000  0.000000000000  0.000000000000  1.000000000000
* p-type functions
   12    5
        304.12831900
         66.26058030
         20.91944730
         22.46532550
          7.87746836
          2.70527125
          2.69211573
       7230.56288e-4
       2598.38259e-4
       1897.14021e-4
        339.97257e-4
       1471.23127e-5
  0.148440888800  0.000000000000  0.000000000000  0.000000000000  0.000000000000
  0.589124742300  0.000000000000  0.000000000000  0.000000000000  0.000000000000
  0.425825125500  0.000000000000  0.000000000000  0.000000000000  0.000000000000
  0.000000000000  0.024454095610  0.000000000000  0.000000000000  0.000000000000
  0.000000000000  0.494453849100  0.000000000000  0.000000000000  0.000000000000
  0.000000000000  0.571856716100  0.000000000000  0.000000000000  0.000000000000
  0.000000000000  0.000000000000  0.011900505590  0.000000000000  0.000000000000
  0.000000000000  0.000000000000  0.495173144700  0.000000000000  0.000000000000
  0.000000000000  0.000000000000  0.573724414700  0.000000000000  0.000000000000
  0.000000000000  0.000000000000  0.000000000000  3.081009049e-4  0.000000000000
  0.000000000000  0.000000000000  0.000000000000  0.999865382600  0.000000000000
  0.000000000000  0.000000000000  0.000000000000  0.000000000000  1.000000000000
* d-type functions
    3    1
         40.86603100
         10.84088500
          3.05083410
  0.146603700700
  0.512725202500
  0.569980402700

/Sr.3-21G.Dobbs.15s12p3d.6s5p1d.
K.D. Dobbs, W.J. Hehre. J. Comput. Chem. 7 (1986) 359-378. doi:10.1002/jcc.540070313
STRONTIUM (15s,12p,3d) -> [6s,5p,1d]
Options
Cartesian d
EndOptions
    38.0   2
* s-type functions
   15    6
       7215.47350000
       1092.85190000
        239.98182000
        322.12458300
         70.09045940
         22.17640630
         23.92763060
          8.47511379
          2.94293414
          2.94096636
       8523.55863e-4
       3215.37496e-4
       3480.41938e-4
       4817.71465e-5
       2180.33504e-5
  0.062281804000  0.000000000000  0.000000000000  0.000000000000  0.000000000000  0.000000000000
  0.371310123800  0.000000000000  0.000000000000  0.000000000000  0.000000000000  0.000000000000
  0.686443944100  0.000000000000  0.000000000000  0.000000000000  0.000000000000  0.000000000000
  0.000000000000 -0.112235318100  0.000000000000  0.000000000000  0.000000000000  0.000000000000
  0.000000000000  0.089543598740  0.000000000000  0.000000000000  0.000000000000  0.000000000000
  0.000000000000  0.964813463400  0.000000000000  0.000000000000  0.000000000000  0.000000000000
  0.000000000000  0.000000000000 -0.302471811900  0.000000000000  0.000000000000  0.000000000000
  0.000000000000  0.000000000000  0.270084088900  0.000000000000  0.000000000000  0.000000000000
  0.000000000000  0.000000000000  0.915919986700  0.000000000000  0.000000000000  0.000000000000
  0.000000000000  0.000000000000  0.000000000000 -0.351984597900  0.000000000000  0.000000000000
  0.000000000000  0.000000000000  0.000000000000  0.497254554800  0.000000000000  0.000000000000
  0.000000000000  0.000000000000  0.000000000000  0.723859781700  0.000000000000  0.000000000000
  0.000000000000  0.000000000000  0.000000000000  0.000000000000 -0.285146833700  0.000000000000
  0.000000000000  0.000000000000  0.000000000000  0.000000000000  1.120939249000  0.000000000000
  0.000000000000  0.000000000000  0.000000000000  0.000000000000  0.000000000000  1.000000000000
* p-type functions
   12    5
        322.12458300
         70.09045940
         22.17640630
         23.92763060
          8.47511379
          2.94293414
          2.94096636
       8523.55863e-4
       3215.37496e-4
       3480.41938e-4
       4817.71465e-5
       2180.33504e-5
  0.148836838900  0.000000000000  0.000000000000  0.000000000000  0.000000000000
  0.591946564600  0.000000000000  0.000000000000  0.000000000000  0.000000000000
  0.422171514700  0.000000000000  0.000000000000  0.000000000000  0.000000000000
  0.000000000000  0.024836975010  0.000000000000  0.000000000000  0.000000000000
  0.000000000000  0.493477508200  0.000000000000  0.000000000000  0.000000000000
  0.000000000000  0.570982925200  0.000000000000  0.000000000000  0.000000000000
  0.000000000000  0.000000000000  0.009723335540  0.000000000000  0.000000000000
  0.000000000000  0.000000000000  0.498321964000  0.000000000000  0.000000000000
  0.000000000000  0.000000000000  0.565056121000  0.000000000000  0.000000000000
  0.000000000000  0.000000000000  0.000000000000  0.000308109644  0.000000000000
  0.000000000000  0.000000000000  0.000000000000  0.999893535900  0.000000000000
  0.000000000000  0.000000000000  0.000000000000  0.000000000000  1.000000000000
* d-type functions
    3    1
         44.56611500
         11.88148900
          3.38755790
  0.145127098200
  0.513067693600
  0.567663992900

/Y.3-21G.Dobbs.15s12p6d.6s5p3d.
K.D. Dobbs, W.J. Hehre. J. Comput. Chem. 8 (1987) 880-893. doi:10.1002/jcc.540080615
YTTRIUM (15s,12p,6d) -> [6s,5p,3d]
Options
Cartesian d
EndOptions
    39.0   2
* s-type functions
   15    6
       7646.42100000
       1156.86260000
        253.71518000
        341.85398000
         74.20986040
         23.51352040
         18.86260390
         16.45405200
          3.48449953
          3.22173272
          1.05070466
       3925.92269e-4
       4327.63707e-4
          0.05701219
       2375.37001e-5
  0.061890498530  0.000000000000  0.000000000000  0.000000000000  0.000000000000  0.000000000000
  0.370206791200  0.000000000000  0.000000000000  0.000000000000  0.000000000000  0.000000000000
  0.687755983600  0.000000000000  0.000000000000  0.000000000000  0.000000000000  0.000000000000
  0.000000000000 -0.111900056000  0.000000000000  0.000000000000  0.000000000000  0.000000000000
  0.000000000000  0.086805235820  0.000000000000  0.000000000000  0.000000000000  0.000000000000
  0.000000000000  0.966784667300  0.000000000000  0.000000000000  0.000000000000  0.000000000000
  0.000000000000  0.000000000000 -1.477873303000  0.000000000000  0.000000000000  0.000000000000
  0.000000000000  0.000000000000  1.347258752000  0.000000000000  0.000000000000  0.000000000000
  0.000000000000  0.000000000000  1.006230782000  0.000000000000  0.000000000000  0.000000000000
  0.000000000000  0.000000000000  0.000000000000 -0.369957971100  0.000000000000  0.000000000000
  0.000000000000  0.000000000000  0.000000000000  0.430863862100  0.000000000000  0.000000000000
  0.000000000000  0.000000000000  0.000000000000  0.802087368200  0.000000000000  0.000000000000
  0.000000000000  0.000000000000  0.000000000000  0.000000000000 -0.346458205000  0.000000000000
  0.000000000000  0.000000000000  0.000000000000  0.000000000000  1.132776617000  0.000000000000
  0.000000000000  0.000000000000  0.000000000000  0.000000000000  0.000000000000  1.000000000000
* p-type functions
   12    5
        341.85398000
         74.20986040
         23.51352040
         18.86260390
         16.45405200
          3.48449953
          3.22173272
          1.05070466
       3925.92269e-4
       4327.63707e-4
          0.05701219
       2375.37001e-5
  0.148571659900  0.000000000000  0.000000000000  0.000000000000  0.000000000000
  0.594306650600  0.000000000000  0.000000000000  0.000000000000  0.000000000000
  0.419603955700  0.000000000000  0.000000000000  0.000000000000  0.000000000000
  0.000000000000 -0.704140664300  0.000000000000  0.000000000000  0.000000000000
  0.000000000000  1.057861620000  0.000000000000  0.000000000000  0.000000000000
  0.000000000000  0.739382137300  0.000000000000  0.000000000000  0.000000000000
  0.000000000000  0.000000000000  0.002494434829  0.000000000000  0.000000000000
  0.000000000000  0.000000000000  0.453762289800  0.000000000000  0.000000000000
  0.000000000000  0.000000000000  0.613067851700  0.000000000000  0.000000000000
  0.000000000000  0.000000000000  0.000000000000 -0.001336559069  0.000000000000
  0.000000000000  0.000000000000  0.000000000000  1.000439599000  0.000000000000
  0.000000000000  0.000000000000  0.000000000000  0.000000000000  1.000000000000
* d-type functions
    6    3
         50.35375300
         13.53078000
          3.94499600
          1.53013740
          0.63006734
          0.21658843
  0.136795594500  0.000000000000  0.000000000000
  0.501906179800  0.000000000000  0.000000000000
  0.578859776700  0.000000000000  0.000000000000
  0.000000000000  0.338403263900  0.000000000000
  0.000000000000  0.729328945900  0.000000000000
  0.000000000000  0.000000000000  1.000000000000

/Zr.3-21G.Dobbs.15s12p6d.6s5p3d.
K.D. Dobbs, W.J. Hehre. J. Comput. Chem. 8 (1987) 880-893. doi:10.1002/jcc.540080615
ZIRCONIUM (15s,12p,6d) -> [6s,5p,3d]
Options
Cartesian d
EndOptions
    40.0   2
* s-type functions
   15    6
       8084.59190000
       1221.66780000
        267.69173000
        361.02119300
         78.30494800
         24.84522920
         20.00627700
         17.57414640
          3.74298507
          3.55478844
          1.17899236
       4446.96559e-4
       5050.48819e-4
       6211.61226e-5
       2557.95531e-5
  0.061577600470  0.000000000000  0.000000000000  0.000000000000  0.000000000000  0.000000000000
  0.369398902800  0.000000000000  0.000000000000  0.000000000000  0.000000000000  0.000000000000
  0.688728005200  0.000000000000  0.000000000000  0.000000000000  0.000000000000  0.000000000000
  0.000000000000 -0.111906718000  0.000000000000  0.000000000000  0.000000000000  0.000000000000
  0.000000000000  0.085839926630  0.000000000000  0.000000000000  0.000000000000  0.000000000000
  0.000000000000  0.967513022300  0.000000000000  0.000000000000  0.000000000000  0.000000000000
  0.000000000000  0.000000000000 -1.544348624000  0.000000000000  0.000000000000  0.000000000000
  0.000000000000  0.000000000000  1.409596044000  0.000000000000  0.000000000000  0.000000000000
  0.000000000000  0.000000000000  1.009349253000  0.000000000000  0.000000000000  0.000000000000
  0.000000000000  0.000000000000  0.000000000000 -0.379387308800  0.000000000000  0.000000000000
  0.000000000000  0.000000000000  0.000000000000  0.423284725800  0.000000000000  0.000000000000
  0.000000000000  0.000000000000  0.000000000000  0.814067561600  0.000000000000  0.000000000000
  0.000000000000  0.000000000000  0.000000000000  0.000000000000 -0.329511782900  0.000000000000
  0.000000000000  0.000000000000  0.000000000000  0.000000000000  1.120709453000  0.000000000000
  0.000000000000  0.000000000000  0.000000000000  0.000000000000  0.000000000000  1.000000000000
* p-type functions
   12    5
        361.02119300
         78.30494800
         24.84522920
         20.00627700
         17.57414640
          3.74298507
          3.55478844
          1.17899236
       4446.96559e-4
       5050.48819e-4
       6211.61226e-5
       2557.95531e-5
  0.148761611100  0.000000000000  0.000000000000  0.000000000000  0.000000000000
  0.596569000400  0.000000000000  0.000000000000  0.000000000000  0.000000000000
  0.416784877200  0.000000000000  0.000000000000  0.000000000000  0.000000000000
  0.000000000000 -0.756847979800  0.000000000000  0.000000000000  0.000000000000
  0.000000000000  1.112090061000  0.000000000000  0.000000000000  0.000000000000
  0.000000000000  0.736802379800  0.000000000000  0.000000000000  0.000000000000
  0.000000000000  0.000000000000  0.002599454819  0.000000000000  0.000000000000
  0.000000000000  0.000000000000  0.459975803800  0.000000000000  0.000000000000
  0.000000000000  0.000000000000  0.605848506800  0.000000000000  0.000000000000
  0.000000000000  0.000000000000  0.000000000000 -0.001248930019  0.000000000000
  0.000000000000  0.000000000000  0.000000000000  1.000384339000  0.000000000000
  0.000000000000  0.000000000000  0.000000000000  0.000000000000  1.000000000000
* d-type functions
    6    3
         54.72323200
         14.77416400
          4.35896120
          1.86284240
          0.64331354
          0.19939538
  0.134823997600  0.000000000000  0.000000000000
  0.500554391100  0.000000000000  0.000000000000
  0.578782289700  0.000000000000  0.000000000000
  0.000000000000  0.285032029000  0.000000000000
  0.000000000000  0.797207372100  0.000000000000
  0.000000000000  0.000000000000  1.000000000000

/Nb.3-21G.Dobbs.15s12p6d.6s5p3d.
K.D. Dobbs, W.J. Hehre. J. Comput. Chem. 8 (1987) 880-893. doi:10.1002/jcc.540080615
NIOBIUM (15s,12p,6d) -> [6s,5p,3d]
Options
Cartesian d
EndOptions
    41.0   2
* s-type functions
   15    6
       8466.51730000
       1281.26110000
        281.23108000
        379.47287800
         82.33588790
         26.22247550
         21.16294500
         18.58978260
          4.00998104
          3.83637510
          1.30332520
          0.49343064
       5723.73417e-4
       6820.32005e-5
          0.02715715
  0.061803803610  0.000000000000  0.000000000000  0.000000000000  0.000000000000  0.000000000000
  0.369804921600  0.000000000000  0.000000000000  0.000000000000  0.000000000000  0.000000000000
  0.688079540200  0.000000000000  0.000000000000  0.000000000000  0.000000000000  0.000000000000
  0.000000000000 -0.112106284000  0.000000000000  0.000000000000  0.000000000000  0.000000000000
  0.000000000000  0.086502785210  0.000000000000  0.000000000000  0.000000000000  0.000000000000
  0.000000000000  0.967057378100  0.000000000000  0.000000000000  0.000000000000  0.000000000000
  0.000000000000  0.000000000000 -1.555130539000  0.000000000000  0.000000000000  0.000000000000
  0.000000000000  0.000000000000  1.417938759000  0.000000000000  0.000000000000  0.000000000000
  0.000000000000  0.000000000000  1.010619909000  0.000000000000  0.000000000000  0.000000000000
  0.000000000000  0.000000000000  0.000000000000 -0.389103746300  0.000000000000  0.000000000000
  0.000000000000  0.000000000000  0.000000000000  0.434969585400  0.000000000000  0.000000000000
  0.000000000000  0.000000000000  0.000000000000  0.811589893700  0.000000000000  0.000000000000
  0.000000000000  0.000000000000  0.000000000000  0.000000000000 -0.315609356800  0.000000000000
  0.000000000000  0.000000000000  0.000000000000  0.000000000000  1.114047019000  0.000000000000
  0.000000000000  0.000000000000  0.000000000000  0.000000000000  0.000000000000  1.000000000000
* p-type functions
   12    5
        379.47287800
         82.33588790
         26.22247550
         21.16294500
         18.58978260
          4.00998104
          3.83637510
          1.30332520
          0.49343064
       5723.73417e-4
       6820.32005e-5
          0.02715715
  0.149667374900  0.000000000000  0.000000000000  0.000000000000  0.000000000000
  0.598718212600  0.000000000000  0.000000000000  0.000000000000  0.000000000000
  0.413238198700  0.000000000000  0.000000000000  0.000000000000  0.000000000000
[...]
  0.000000000000 -0.150962753900  0.000000000000  0.000000000000  0.000000000000
  0.000000000000  0.539967728700  0.000000000000  0.000000000000  0.000000000000
  0.000000000000  0.660482310700  0.000000000000  0.000000000000  0.000000000000
  0.000000000000  0.000000000000  0.011951298600  0.000000000000  0.000000000000
  0.000000000000  0.000000000000  0.506719452000  0.000000000000  0.000000000000
  0.000000000000  0.000000000000  0.552910583000  0.000000000000  0.000000000000
  0.000000000000  0.000000000000  0.000000000000 -0.021070525910  0.000000000000
  0.000000000000  0.000000000000  0.000000000000 -0.990591371400  0.000000000000
  0.000000000000  0.000000000000  0.000000000000  0.000000000000  1.000000000000
* d-type functions
    6    2
        108.05630000
         30.13157600
          9.53003590
          4.96260980
          1.71208290
          0.57719451
  0.119823702000  0.000000000000
  0.487591008100  0.000000000000
  0.584987409800  0.000000000000
  0.000000000000  0.252948703500
  0.000000000000  0.572761208000
  0.000000000000  0.369038705100

/Sb.3-21G.Dobbs.15s12p6d.6s5p2d.
K.D. Dobbs, W.J. Hehre. J. Comput. Chem. 7 (1986) 359-378. doi:10.1002/jcc.540070313
ANTIMONY (15s,12p,6d) -> [6s,5p,2d]
Options
Cartesian d
EndOptions
    51.0   2
* s-type functions
   15    6
      13289.38300000
       2010.52180000
        441.69815000
        598.88905000
        130.03860100
         42.13286020
         51.51332880
         24.43594590
          7.42093080
          7.31423541
          2.84405286
          1.10585467
          1.27863729
       2412.32097e-4
       8662.96732e-5
  0.060984300000  0.000000000000  0.000000000000  0.000000000000  0.000000000000  0.000000000000
  0.366848700000  0.000000000000  0.000000000000  0.000000000000  0.000000000000  0.000000000000
  0.691050100000  0.000000000000  0.000000000000  0.000000000000  0.000000000000  0.000000000000
  0.000000000000 -0.112720134000  0.000000000000  0.000000000000  0.000000000000  0.000000000000
  0.000000000000  0.082644326080  0.000000000000  0.000000000000  0.000000000000  0.000000000000
  0.000000000000  0.970257860800  0.000000000000  0.000000000000  0.000000000000  0.000000000000
  0.000000000000  0.000000000000 -0.277043337700  0.000000000000  0.000000000000  0.000000000000
  0.000000000000  0.000000000000  0.057503233930  0.000000000000  0.000000000000  0.000000000000
  0.000000000000  0.000000000000  1.084702829000  0.000000000000  0.000000000000  0.000000000000
  0.000000000000  0.000000000000  0.000000000000  0.440381164100  0.000000000000  0.000000000000
  0.000000000000  0.000000000000  0.000000000000 -0.473734095100  0.000000000000  0.000000000000
  0.000000000000  0.000000000000  0.000000000000 -0.822134968200  0.000000000000  0.000000000000
  0.000000000000  0.000000000000  0.000000000000  0.000000000000  0.601695104700  0.000000000000
  0.000000000000  0.000000000000  0.000000000000  0.000000000000 -1.258692017000  0.000000000000
  0.000000000000  0.000000000000  0.000000000000  0.000000000000  0.000000000000  1.000000000000
* p-type functions
   12    5
        598.88905000
        130.03860100
         42.13286020
         51.51332880
         24.43594590
          7.42093080
          7.31423541
          2.84405286
          1.10585467
          1.27863729
       2412.32097e-4
       8662.96732e-5
  0.153067117000  0.000000000000  0.000000000000  0.000000000000  0.000000000000
  0.613597248100  0.000000000000  0.000000000000  0.000000000000  0.000000000000
  0.391699015000  0.000000000000  0.000000000000  0.000000000000  0.000000000000
  0.000000000000 -0.137869858000  0.000000000000  0.000000000000  0.000000000000
  0.000000000000  0.536354976900  0.000000000000  0.000000000000  0.000000000000
  0.000000000000  0.650867637900  0.000000000000  0.000000000000  0.000000000000
  0.000000000000  0.000000000000  0.015305180900  0.000000000000  0.000000000000
  0.000000000000  0.000000000000  0.516083219100  0.000000000000  0.000000000000
  0.000000000000  0.000000000000  0.538757047100  0.000000000000  0.000000000000
  0.000000000000  0.000000000000  0.000000000000 -0.022252756600  0.000000000000
  0.000000000000  0.000000000000  0.000000000000 -0.989643364100  0.000000000000
  0.000000000000  0.000000000000  0.000000000000  0.000000000000  1.000000000000
* d-type functions
    6    2
        115.80955000
         32.30583500
         10.25032800
          5.48621020
          1.92161960
          0.66606265
  0.116627903800  0.000000000000
  0.483436315800  0.000000000000
  0.590139519200  0.000000000000
  0.000000000000  0.248365596900
  0.000000000000  0.574315392800
  0.000000000000  0.364304395400

/Te.3-21G.Dobbs.15s12p6d.6s5p2d.
K.D. Dobbs, W.J. Hehre. J. Comput. Chem. 7 (1986) 359-378. doi:10.1002/jcc.540070313
TELLURIUM (15s,12p,6d) -> [6s,5p,2d]
Options
Cartesian d
EndOptions
    52.0   2
* s-type functions
   15    6
      13796.56000000
       2088.87980000
        459.39319000
        623.26312500
        135.36000500
         44.00048430
         54.19078330
         25.82039000
          7.80958320
          7.76421683
          3.04393160
          1.19925288
          1.34036380
       2780.88385e-4
       9672.60742e-5
  0.061086201830  0.000000000000  0.000000000000  0.000000000000  0.000000000000  0.000000000000
  0.366962911000  0.000000000000  0.000000000000  0.000000000000  0.000000000000  0.000000000000
  0.690794420700  0.000000000000  0.000000000000  0.000000000000  0.000000000000  0.000000000000
  0.000000000000 -0.112820024000  0.000000000000  0.000000000000  0.000000000000  0.000000000000
  0.000000000000  0.082252431000  0.000000000000  0.000000000000  0.000000000000  0.000000000000
  0.000000000000  0.970600719000  0.000000000000  0.000000000000  0.000000000000  0.000000000000
  0.000000000000  0.000000000000 -0.274412034700  0.000000000000  0.000000000000  0.000000000000
  0.000000000000  0.000000000000  0.051829684620  0.000000000000  0.000000000000  0.000000000000
  0.000000000000  0.000000000000  1.087621523000  0.000000000000  0.000000000000  0.000000000000
  0.000000000000  0.000000000000  0.000000000000  0.446730552000  0.000000000000  0.000000000000
  0.000000000000  0.000000000000  0.000000000000 -0.469470419000  0.000000000000  0.000000000000
  0.000000000000  0.000000000000  0.000000000000 -0.829810490000  0.000000000000  0.000000000000
  0.000000000000  0.000000000000  0.000000000000  0.000000000000  0.590469929700  0.000000000000
  0.000000000000  0.000000000000  0.000000000000  0.000000000000 -1.281968387000  0.000000000000
  0.000000000000  0.000000000000  0.000000000000  0.000000000000  0.000000000000  1.000000000000
* p-type functions
   12    5
        623.26312500
        135.36000500
         44.00048430
         54.19078330
         25.82039000
          7.80958320
          7.76421683
          3.04393160
          1.19925288
          1.34036380
       2780.88385e-4
       9672.60742e-5
  0.153419477900  0.000000000000  0.000000000000  0.000000000000  0.000000000000
  0.614899614600  0.000000000000  0.000000000000  0.000000000000  0.000000000000
  0.389516244700  0.000000000000  0.000000000000  0.000000000000  0.000000000000
  0.000000000000 -0.143331214100  0.000000000000  0.000000000000  0.000000000000
  0.000000000000  0.539188120200  0.000000000000  0.000000000000  0.000000000000
  0.000000000000  0.652285078200  0.000000000000  0.000000000000  0.000000000000
  0.000000000000  0.000000000000  0.012746196010  0.000000000000  0.000000000000
  0.000000000000  0.000000000000  0.522123125400  0.000000000000  0.000000000000
  0.000000000000  0.000000000000  0.532661398400  0.000000000000  0.000000000000
  0.000000000000  0.000000000000  0.000000000000 -0.025588339890  0.000000000000
  0.000000000000  0.000000000000  0.000000000000 -0.987101626500  0.000000000000
  0.000000000000  0.000000000000  0.000000000000  0.000000000000  1.000000000000
* d-type functions
    6    2
        121.40830000
         34.01521700
         10.86913800
          5.80311130
          2.05806580
          0.73283021
  0.116913591400  0.000000000000
  0.483555464500  0.000000000000
  0.588386356800  0.000000000000
  0.000000000000  0.260193895000
  0.000000000000  0.579775788800
  0.000000000000  0.340557993400

/I.3-21G.Dobbs.15s12p6d.6s5p2d.
K.D. Dobbs, W.J. Hehre. J. Comput. Chem. 7 (1986) 359-378. doi:10.1002/jcc.540070313
IODINE (15s,12p,6d) -> [6s,5p,2d]
Options
Cartesian d
EndOptions
    53.0   2
* s-type functions
   15    6
      14351.18600000
       2173.07410000
        477.87205000
        648.18865900
        140.30644800
         45.69880120
         56.69468950
         27.48875260
          8.20909583
          8.19167865
          3.24459559
          1.30048909
          1.45138012
       3281.03313e-4
       1150.75894e-4
  0.061002801210  0.000000000000  0.000000000000  0.000000000000  0.000000000000  0.000000000000
  0.366639807300  0.000000000000  0.000000000000  0.000000000000  0.000000000000  0.000000000000
  0.691130613700  0.000000000000  0.000000000000  0.000000000000  0.000000000000  0.000000000000
  0.000000000000 -0.112850666000  0.000000000000  0.000000000000  0.000000000000  0.000000000000
  0.000000000000  0.083228337530  0.000000000000  0.000000000000  0.000000000000  0.000000000000
  0.000000000000  0.969751591300  0.000000000000  0.000000000000  0.000000000000  0.000000000000
  0.000000000000  0.000000000000 -0.273696488200  0.000000000000  0.000000000000  0.000000000000
  0.000000000000  0.000000000000  0.046499679210  0.000000000000  0.000000000000  0.000000000000
  0.000000000000  0.000000000000  1.091576055000  0.000000000000  0.000000000000  0.000000000000
  0.000000000000  0.000000000000  0.000000000000  0.450827704800  0.000000000000  0.000000000000
  0.000000000000  0.000000000000  0.000000000000 -0.463209372800  0.000000000000  0.000000000000
  0.000000000000  0.000000000000  0.000000000000 -0.838636015700  0.000000000000  0.000000000000
  0.000000000000  0.000000000000  0.000000000000  0.000000000000  0.665851462800  0.000000000000
  0.000000000000  0.000000000000  0.000000000000  0.000000000000 -1.328583874000  0.000000000000
  0.000000000000  0.000000000000  0.000000000000  0.000000000000  0.000000000000  1.000000000000
* p-type functions
   12    5
        648.18865900
        140.30644800
         45.69880120
         56.69468950
         27.48875260
          8.20909583
          8.19167865
          3.24459559
          1.30048909
          1.45138012
       3281.03313e-4
       1150.75894e-4
  0.154114488100  0.000000000000  0.000000000000  0.000000000000  0.000000000000
  0.619461763400  0.000000000000  0.000000000000  0.000000000000  0.000000000000
  0.383758316300  0.000000000000  0.000000000000  0.000000000000  0.000000000000
  0.000000000000 -0.152321672000  0.000000000000  0.000000000000  0.000000000000
  0.000000000000  0.543768567100  0.000000000000  0.000000000000  0.000000000000
  0.000000000000  0.656167854100  0.000000000000  0.000000000000  0.000000000000
  0.000000000000  0.000000000000  0.011869879000  0.000000000000  0.000000000000
  0.000000000000  0.000000000000  0.526524581900  0.000000000000  0.000000000000
  0.000000000000  0.000000000000  0.526607607900  0.000000000000  0.000000000000
  0.000000000000  0.000000000000  0.000000000000 -0.027541309610  0.000000000000
  0.000000000000  0.000000000000  0.000000000000 -0.985136832200  0.000000000000
  0.000000000000  0.000000000000  0.000000000000  0.000000000000  1.000000000000
* d-type functions
    6    2
        128.09026000
         35.98237800
         11.55111600
          6.14615230
          2.22093700
          0.80991202
  0.115863604400  0.000000000000
  0.482049418100  0.000000000000
  0.589444822100  0.000000000000
  0.000000000000  0.268181706000
  0.000000000000  0.580061413000
  0.000000000000  0.326226307300

/Xe.3-21G.Dobbs.15s12p6d.6s5p2d.
K.D. Dobbs, W.J. Hehre. J. Comput. Chem. 7 (1986) 359-378. doi:10.1002/jcc.540070313
XENON (15s,12p,6d) -> [6s,5p,2d]
Options
Cartesian d
EndOptions
    54.0   2
* s-type functions
   15    6
      14902.23600000
       2256.53830000
        496.37317000
        673.66109200
        145.84908900
         47.57707550
         59.16752090
         28.61159240
          8.59659629
          8.63867616
          3.46281798
          1.40103979
          1.57847410
       3750.81412e-4
          0.13317897
  0.060996896630  0.000000000000  0.000000000000  0.000000000000  0.000000000000  0.000000000000
  0.366628979800  0.000000000000  0.000000000000  0.000000000000  0.000000000000  0.000000000000
  0.691115461900  0.000000000000  0.000000000000  0.000000000000  0.000000000000  0.000000000000
  0.000000000000 -0.112912750000  0.000000000000  0.000000000000  0.000000000000  0.000000000000
  0.000000000000  0.082905291910  0.000000000000  0.000000000000  0.000000000000  0.000000000000
  0.000000000000  0.970028905100  0.000000000000  0.000000000000  0.000000000000  0.000000000000
  0.000000000000  0.000000000000 -0.273977406500  0.000000000000  0.000000000000  0.000000000000
  0.000000000000  0.000000000000  0.045530056190  0.000000000000  0.000000000000  0.000000000000
  0.000000000000  0.000000000000  1.092527552000  0.000000000000  0.000000000000  0.000000000000
  0.000000000000  0.000000000000  0.000000000000  0.455840801600  0.000000000000  0.000000000000
  0.000000000000  0.000000000000  0.000000000000 -0.461735497600  0.000000000000  0.000000000000
  0.000000000000  0.000000000000  0.000000000000 -0.844288303300  0.000000000000  0.000000000000
  0.000000000000  0.000000000000  0.000000000000  0.000000000000  0.727771793400  0.000000000000
  0.000000000000  0.000000000000  0.000000000000  0.000000000000 -1.362797075000  0.000000000000
  0.000000000000  0.000000000000  0.000000000000  0.000000000000  0.000000000000  1.000000000000
* p-type functions
   12    5
        673.66109200
        145.84908900
         47.57707550
         59.16752090
         28.61159240
          8.59659629
          8.63867616
          3.46281798
          1.40103979
          1.57847410
       3750.81412e-4
          0.13317897
  0.154427485000  0.000000000000  0.000000000000  0.000000000000  0.000000000000
  0.620617353800  0.000000000000  0.000000000000  0.000000000000  0.000000000000
  0.382004101900  0.000000000000  0.000000000000  0.000000000000  0.000000000000
  0.000000000000 -0.151857181100  0.000000000000  0.000000000000  0.000000000000
  0.000000000000  0.547150659300  0.000000000000  0.000000000000  0.000000000000
  0.000000000000  0.651954031300  0.000000000000  0.000000000000  0.000000000000
  0.000000000000  0.000000000000  0.009585055706  0.000000000000  0.000000000000
  0.000000000000  0.000000000000  0.529819286800  0.000000000000  0.000000000000
  0.000000000000  0.000000000000  0.523598496800  0.000000000000  0.000000000000
  0.000000000000  0.000000000000  0.000000000000 -0.028072441790  0.000000000000
  0.000000000000  0.000000000000  0.000000000000 -0.984264208600  0.000000000000
  0.000000000000  0.000000000000  0.000000000000  0.000000000000  1.000000000000
* d-type functions
    6    2
        134.91331000
         37.95638700
         12.22747500
          6.60049280
          2.39805130
          0.88648239
  0.115010490800  0.000000000000
  0.481595161600  0.000000000000
  0.589613252900  0.000000000000
  0.000000000000  0.271884401100
  0.000000000000  0.585556902500
  0.000000000000  0.312745601300

/Cs.3-21G.Glendening.18s12p6d.7s6p2d.
E.D. Glendening, D. Feller. J. Phys. Chem. 99 (1995) 3060-3067. doi:10.1021/j100010a015
CAESIUM (18s,12p,6d) -> [7s,6p,2d]
Options
Cartesian d
EndOptions
    55.0   2
* s-type functions
   18    7
      15525.86600000
       2349.00550000
        516.23555000
        687.50505000
         67.19115700
         27.99200300
         60.16818800
         10.86869400
          4.74070500
          9.88716300
          2.36934300
          1.14167600
          1.76907800
          0.38362000
          0.17130600
          0.21184900
          0.04032400
          0.01705800
  0.060724000000  0.000000000000  0.000000000000  0.000000000000  0.000000000000  0.000000000000  0.000000000000
  0.365842000000  0.000000000000  0.000000000000  0.000000000000  0.000000000000  0.000000000000  0.000000000000
  0.692047000000  0.000000000000  0.000000000000  0.000000000000  0.000000000000  0.000000000000  0.000000000000
  0.000000000000 -0.110213000000  0.000000000000  0.000000000000  0.000000000000  0.000000000000  0.000000000000
  0.000000000000  0.727203000000  0.000000000000  0.000000000000  0.000000000000  0.000000000000  0.000000000000
  0.000000000000  0.340143000000  0.000000000000  0.000000000000  0.000000000000  0.000000000000  0.000000000000
  0.000000000000  0.000000000000 -0.275315000000  0.000000000000  0.000000000000  0.000000000000  0.000000000000
  0.000000000000  0.000000000000  0.890128000000  0.000000000000  0.000000000000  0.000000000000  0.000000000000
  0.000000000000  0.000000000000  0.264863000000  0.000000000000  0.000000000000  0.000000000000  0.000000000000
  0.000000000000  0.000000000000  0.000000000000 -0.368827000000  0.000000000000  0.000000000000  0.000000000000
  0.000000000000  0.000000000000  0.000000000000  0.832582000000  0.000000000000  0.000000000000  0.000000000000
  0.000000000000  0.000000000000  0.000000000000  0.388789000000  0.000000000000  0.000000000000  0.000000000000
  0.000000000000  0.000000000000  0.000000000000  0.000000000000 -0.340942000000  0.000000000000  0.000000000000
  0.000000000000  0.000000000000  0.000000000000  0.000000000000  0.700097000000  0.000000000000  0.000000000000
  0.000000000000  0.000000000000  0.000000000000  0.000000000000  0.493452000000  0.000000000000  0.000000000000
  0.000000000000  0.000000000000  0.000000000000  0.000000000000  0.000000000000 -0.275022000000  0.000000000000
  0.000000000000  0.000000000000  0.000000000000  0.000000000000  0.000000000000  0.193604000000  0.000000000000
  0.000000000000  0.000000000000  0.000000000000  0.000000000000  0.000000000000  0.000000000000  1.000000000000
* p-type functions
   12    6
       1024.28330000
        239.64889000
         71.25554800
        139.45864000
         25.81081000
         10.13945200
          4.32424400
          1.93641500
          0.81450500
          0.59458400
          0.27499200
          0.11155300
  0.079185000000  0.000000000000  0.000000000000  0.000000000000  0.000000000000  0.000000000000
  0.419933000000  0.000000000000  0.000000000000  0.000000000000  0.000000000000  0.000000000000
  0.643251000000  0.000000000000  0.000000000000  0.000000000000  0.000000000000  0.000000000000
  0.000000000000 -0.033123000000  0.000000000000  0.000000000000  0.000000000000  0.000000000000
  0.000000000000  0.389108000000  0.000000000000  0.000000000000  0.000000000000  0.000000000000
  0.000000000000  0.679033000000  0.000000000000  0.000000000000  0.000000000000  0.000000000000
  0.000000000000  0.000000000000  0.381669000000  0.000000000000  0.000000000000  0.000000000000
  0.000000000000  0.000000000000  0.576976000000  0.000000000000  0.000000000000  0.000000000000
  0.000000000000  0.000000000000  0.115405000000  0.000000000000  0.000000000000  0.000000000000
  0.000000000000  0.000000000000  0.000000000000  1.000000000000  0.000000000000  0.000000000000
  0.000000000000  0.000000000000  0.000000000000  0.000000000000  1.000000000000  0.000000000000
  0.000000000000  0.000000000000  0.000000000000  0.000000000000  0.000000000000  1.000000000000
* d-type functions
    6    2
        144.05139000
         40.50514600
         13.08624400
          7.37157800
          2.72482400
          1.02667800
  0.111830000000  0.000000000000
  0.476835000000  0.000000000000
  0.595417000000  0.000000000000
  0.000000000000  0.253725000000
  0.000000000000  0.578886000000
  0.000000000000  0.332598000000
