************************************************************************
* This file is part of OpenMolcas.                                     *
*                                                                      *
* OpenMolcas is free software; you can redistribute it and/or modify   *
* it under the terms of the GNU Lesser General Public License, v. 2.1. *
* OpenMolcas is distributed in the hope that it will be useful, but it *
* is provided "as is" and without any express or implied warranties.   *
* For more details see the full text of the license in the file        *
* LICENSE or in <http://www.gnu.org/licenses/>.                        *
************************************************************************
/H.4-31G.Ditchfield.4s.2s.
R. Ditchfield, W. J. Hehre and J. A. Pople, JCP, 54, 724 (1971)
HYDROGEN (4s) -> [2s]
          1.   0
* S-type functions
    4    2
          18.73113700
           2.82539440
           0.64012170
           0.16127780
  0.03349460  0.00000000
  0.23472690  0.00000000
  0.81375730  0.00000000
  0.00000000  1.00000000
/He.4-31G.Ditchfield.4s.2s.
R. Ditchfield, W. J. Hehre and J. A. Pople, JCP, 54, 724 (1971)
HELIUM       (4s) -> [2s]
          2.   0
* S-type functions
    4    2
          38.42163400
           5.77803000
           1.24177400
           0.29796400
  0.02376600  0.00000000
  0.15467900  0.00000000
  0.46963000  0.00000000
  0.00000000  1.00000000
/Li.4-31G.Ditchfield.8s3p.3s2p.
R. Ditchfield, W. J. Hehre and J. A. Pople, JCP, 54, 724 (1971)
LITHIUM      (8s,3p) -> [3s,2p]
          3.   1
* S-type functions
    8    3
         275.39444000
          41.43517500
           9.36699380
           2.53772530
           0.74663650
           0.73456430
           0.08719800
           0.04043870
  0.00612185  0.00000000  0.00000000
  0.04511296  0.00000000  0.00000000
  0.19269415  0.00000000  0.00000000
  0.46854421  0.00000000  0.00000000
  0.44060752  0.00000000  0.00000000
  0.00000000 -0.25253680  0.00000000
  0.00000000  1.09734080  0.00000000
  0.00000000  0.00000000  1.00000000
* P-type functions
    3    2
           0.73456430
           0.08719800
           0.04043870
  0.14359173  0.00000000
  0.94780305  0.00000000
  0.00000000  1.00000000
/Be.4-31G.Ditchfield.8s3p.3s2p.
R. Ditchfield, W. J. Hehre and J. A. Pople, JCP, 54, 724 (1971)
BERYLLIUM    (8s,3p) -> [3s,2p]
          4.   1
* S-type functions
    8    3
         554.01000000
          83.26310000
          18.86350000
           5.17782000
           1.55602000
           1.44175249
           0.30186106
           0.10096139
  0.00540997  0.00000000  0.00000000
  0.04025150  0.00000000  0.00000000
  0.17685800  0.00000000  0.00000000
  0.45255900  0.00000000  0.00000000
  0.47029300  0.00000000  0.00000000
  0.00000000 -0.47742900  0.00000000
  0.00000000  1.24745000  0.00000000
  0.00000000  0.00000000  1.00000000
* P-type functions
    3    2
           1.44175249
           0.30186106
           0.10096139
  0.20114200  0.00000000
  0.88448300  0.00000000
  0.00000000  1.00000000
/B.4-31G.Ditchfield.8s4p.3s2p.
R. Ditchfield, W. J. Hehre and J. A. Pople, JCP, 54, 724 (1971)
BORON        (8s,4p) -> [3s,2p]
          5.   1
* S-type functions
    8    3
         330.75285000
          49.84386500
          11.11705400
           2.92272430
           5.68126460
           1.45440460
           0.42837860
           0.14421920
  0.01799420  0.00000000  0.00000000
  0.12469370  0.00000000  0.00000000
  0.43433540  0.00000000  0.00000000
  0.56097940  0.00000000  0.00000000
  0.00000000 -0.13038710  0.00000000
  0.00000000 -0.25143440  0.00000000
  0.00000000  1.20512920  0.00000000
  0.00000000  0.00000000  1.00000000
* P-type functions
    4    2
           5.68126460
           1.45440460
           0.42837860
           0.14421920
  0.06374290  0.00000000
  0.27613310  0.00000000
  0.77738660  0.00000000
  0.00000000  1.00000000
/C.4-31G.Ditchfield.8s4p.3s2p.
R. Ditchfield, W. J. Hehre and J. A. Pople, JCP, 54, 724 (1971)
CARBON       (8S,4P) -> [3S,2P]
          6.   1
* S-type functions
    8    3
         486.96693000
          73.37109400
          16.41345800
           4.34498360
           8.67352530
           2.09661930
           0.60465130
           0.18355780
  0.01772580  0.00000000  0.00000000
  0.12347870  0.00000000  0.00000000
  0.43387540  0.00000000  0.00000000
  0.56150420  0.00000000  0.00000000
  0.00000000 -0.12138370  0.00000000
  0.00000000 -0.22733850  0.00000000
  0.00000000  1.18517390  0.00000000
  0.00000000  0.00000000  1.00000000
* P-type functions
    4    2
           8.67352530
           2.09661930
           0.60465130
           0.18355780
  0.06354540  0.00000000
  0.29826780  0.00000000
  0.76210320  0.00000000
  0.00000000  1.00000000
/N.4-31G.Ditchfield.8s4p.3s2p.
R. Ditchfield, W. J. Hehre and J. A. Pople, JCP, 54, 724 (1971)
NITROGEN     (8S,4P) -> [3S,2P]
          7.   1
* S-type functions
    8    3
         671.27950000
         101.20170000
          22.69997000
           6.04060900
          12.39359970
           2.92238280
           0.83252808
           0.22596400
  0.01759825  0.00000000  0.00000000
  0.12284624  0.00000000  0.00000000
  0.43378214  0.00000000  0.00000000
  0.56141822  0.00000000  0.00000000
  0.00000000 -0.11748930  0.00000000
  0.00000000 -0.21399402  0.00000000
  0.00000000  1.17450211  0.00000000
  0.00000000  0.00000000  1.00000000
* P-type functions
    4    2
          12.39359970
           2.92238280
           0.83252808
           0.22596400
  0.06402034  0.00000000
  0.31120256  0.00000000
  0.75274824  0.00000000
  0.00000000  1.00000000
/O.4-31G.Ditchfield.8s4p.3s2p.
R. Ditchfield, W. J. Hehre and J. A. Pople, JCP, 54, 724 (1971)
OXYGEN       (8S,4P) -> [3S,2P]
          8.   1
* S-type functions
    8    3
         883.27286000
         133.12928000
          29.90640800
           7.97867720
          16.19444700
           3.78008600
           1.07098360
           0.28387980
  0.01755060  0.00000000  0.00000000
  0.12282920  0.00000000  0.00000000
  0.43488360  0.00000000  0.00000000
  0.56001080  0.00000000  0.00000000
  0.00000000 -0.11340100  0.00000000
  0.00000000 -0.17728650  0.00000000
  0.00000000  1.15040790  0.00000000
  0.00000000  0.00000000  1.00000000
* P-type functions
    4    2
          16.19444700
           3.78008600
           1.07098360
           0.28387980
  0.06854530  0.00000000
  0.33122540  0.00000000
  0.73460790  0.00000000
  0.00000000  1.00000000
/F.4-31G.Ditchfield.8s4p.3s2p.
R. Ditchfield, W. J. Hehre and J. A. Pople, JCP, 54, 724 (1971)
FLUORINE     (8S,4P) -> [3S,2P]
          9.   1
* S-type functions
    8    3
        1126.16300000
         169.74320000
          38.18151000
          10.21204000
          21.49537000
           4.98977800
           1.40357400
           0.37303180
  0.01747580  0.00000000  0.00000000
  0.12252300  0.00000000  0.00000000
  0.43499900  0.00000000  0.00000000
  0.55981200  0.00000000  0.00000000
  0.00000000 -0.11105700  0.00000000
  0.00000000 -0.16832200  0.00000000
  0.00000000  1.14362600  0.00000000
  0.00000000  0.00000000  1.00000000
* P-type functions
    4    2
          21.49537000
           4.98977800
           1.40357400
           0.37303180
  0.06988800  0.00000000
  0.33938800  0.00000000
  0.72795900  0.00000000
  0.00000000  1.00000000
/Ne.4-31G.Ditchfield.8s4p.3s2p.
R. Ditchfield, W. J. Hehre and J. A. Pople, JCP, 54, 724 (1971)
NEON         (8S,4P) -> [3S,2P]
         10.   1
* S-type functions
    8    3
        1397.93210000
         210.76978000
          47.46725700
          12.72262600
          27.21303300
           6.29413440
           1.76005130
           0.46186700
  0.01742381  0.00000000  0.00000000
  0.12227275  0.00000000  0.00000000
  0.43501423  0.00000000  0.00000000
  0.55971464  0.00000000  0.00000000
  0.00000000 -0.10960944  0.00000000
  0.00000000 -0.16412489  0.00000000
  0.00000000  1.14015159  0.00000000
  0.00000000  0.00000000  1.00000000
* P-type functions
    4    2
          27.21303300
           6.29413440
           1.76005130
           0.46186700
  0.07044031  0.00000000
  0.34399305  0.00000000
  0.72451496  0.00000000
  0.00000000  1.00000000
/P.4-31G.Ditchfield.12s8p.4s3p.
R. Ditchfield, W. J. Hehre and J. A. Pople, JCP, 54, 724 (1971)
PHOSPHORUS   (12s,8p) -> [4s,3p]
         15.   1
* S-type functions
   12    4
        3018.67180000
         455.12712100
         102.31473000
          27.61784730
         114.42940100
          26.58229590
           7.87188890
           2.48785725
          50.75061900
           1.67286242
           0.62109741
           0.16701601
  0.01852131  0.00000000  0.00000000  0.00000000
  0.12990486  0.00000000  0.00000000  0.00000000
  0.45510029  0.00000000  0.00000000  0.00000000
  0.53313186  0.00000000  0.00000000  0.00000000
  0.00000000 -0.02475030  0.00000000  0.00000000
  0.00000000 -0.13509246  0.00000000  0.00000000
  0.00000000  0.22773608  0.00000000  0.00000000
  0.00000000  0.87559312  0.00000000  0.00000000
  0.00000000  0.00000000 -0.04511922  0.00000000
  0.00000000  0.00000000 -0.85047299  0.00000000
  0.00000000  0.00000000  1.59628585  0.00000000
  0.00000000  0.00000000  0.00000000  1.00000000
* P-type functions
    8    3
         114.42940100
          26.58229590
           7.87188890
           2.48785725
          50.75061900
           1.67286242
           0.62109741
           0.16701601
  0.02741400  0.00000000  0.00000000
  0.16907914  0.00000000  0.00000000
  0.46910209  0.00000000  0.00000000
  0.51815306  0.00000000  0.00000000
  0.00000000  0.00377907  0.00000000
  0.00000000 -0.04634384  0.00000000
  0.00000000  1.03394429  0.00000000
  0.00000000  0.00000000  1.00000000
/S.4-31G.Ditchfield.12s8p.4s3p.
R. Ditchfield, W. J. Hehre and J. A. Pople, JCP, 54, 724 (1971)
SULFUR       (12s,8p) -> [4s,3p]
         16.   1
* S-type functions
   12    4
        3442.12440000
         518.91310000
         116.69090000
          31.57164700
         127.44058000
          29.74766700
           8.83466420
           2.81738980
           3.72918540
           1.40677020
           0.54811000
           0.17038090
  0.01849210  0.00000000  0.00000000  0.00000000
  0.12982200  0.00000000  0.00000000  0.00000000
  0.45504180  0.00000000  0.00000000  0.00000000
  0.53300840  0.00000000  0.00000000  0.00000000
  0.00000000 -0.02726460  0.00000000  0.00000000
  0.00000000 -0.14248340  0.00000000  0.00000000
  0.00000000  0.25970430  0.00000000  0.00000000
  0.00000000  0.85254730  0.00000000  0.00000000
  0.00000000  0.00000000 -0.27753150  0.00000000
  0.00000000  0.00000000 -0.45764350  0.00000000
  0.00000000  0.00000000  1.43168430  0.00000000
  0.00000000  0.00000000  0.00000000  1.00000000
* P-type functions
    8    3
         127.44058000
          29.74766700
           8.83466420
           2.81738980
           3.72918540
           1.40677020
           0.54811000
           0.17038090
  0.02915200  0.00000000  0.00000000
  0.17795970  0.00000000  0.00000000
  0.48362370  0.00000000  0.00000000
  0.49425530  0.00000000  0.00000000
  0.00000000 -0.03375090  0.00000000
  0.00000000  0.14571100  0.00000000
  0.00000000  0.89828870  0.00000000
  0.00000000  0.00000000  1.00000000
/Cl.4-31G.Ditchfield.12s8p.4s3p.
R. Ditchfield, W. J. Hehre and J. A. Pople, JCP, 54, 724 (1971)
CHLORINE     (12s,8p) -> [4s,3p]
         17.   1
* S-type functions
   12    4
        3910.30260000
         589.55180000
         132.59392000
          35.90354200
         147.76535000
          34.50607500
          10.28647100
           3.31114730
           4.28028491
           1.64101667
           0.61447850
           0.19565941
  0.01837940  0.00000000  0.00000000  0.00000000
  0.12914010  0.00000000  0.00000000  0.00000000
  0.45404480  0.00000000  0.00000000  0.00000000
  0.53443940  0.00000000  0.00000000  0.00000000
  0.00000000 -0.02674330  0.00000000  0.00000000
  0.00000000 -0.14469110  0.00000000  0.00000000
  0.00000000  0.25170350  0.00000000  0.00000000
  0.00000000  0.85982030  0.00000000  0.00000000
  0.00000000  0.00000000 -0.27039630  0.00000000
  0.00000000  0.00000000 -0.34162970  0.00000000
  0.00000000  0.00000000  1.35002450  0.00000000
  0.00000000  0.00000000  0.00000000  1.00000000
* P-type functions
    8    3
         147.76535000
          34.50607500
          10.28647100
           3.31114730
           4.28028491
           1.64101667
           0.61447850
           0.19565941
  0.02886450  0.00000000  0.00000000
  0.17796470  0.00000000  0.00000000
  0.48699980  0.00000000  0.00000000
  0.48901840  0.00000000  0.00000000
  0.00000000 -0.03670280  0.00000000
  0.00000000  0.19184920  0.00000000
  0.00000000  0.86433760  0.00000000
  0.00000000  0.00000000  1.00000000
