************************************************************************
* This file is part of OpenMolcas.                                     *
*                                                                      *
* OpenMolcas is free software; you can redistribute it and/or modify   *
* it under the terms of the GNU Lesser General Public License, v. 2.1. *
* OpenMolcas is distributed in the hope that it will be useful, but it *
* is provided "as is" and without any express or implied warranties.   *
* For more details see the full text of the license in the file        *
* LICENSE or in <http://www.gnu.org/licenses/>.                        *
************************************************************************

#Hamiltonian NRH
#Nucleus UNK
#Contraction SEG
#AllElectron AE_

************************************************************************
* This file has been generated from Basis Set Exchange data:           *
*   https://www.basissetexchange.org                                   *
* Version: 1  (Data from Gaussian 09)                                  *
************************************************************************

/H.5-21G.Binkley.3s.2s.
J.S. Binkley, J.A. Pople, W.J. Hehre. J. Am. Chem. Soc. 102 (1980) 939-947. doi:10.1021/ja00523a008
HYDROGEN (3s) -> [2s]
     1.0   0
* s-type functions
    3    2
          5.44717800
          0.82454724
          0.18319158
  0.156284978700  0.000000000000
  0.904690876700  0.000000000000
  0.000000000000  1.000000000000

/He.5-21G.Binkley.3s.2s.
J.S. Binkley, J.A. Pople, W.J. Hehre. J. Am. Chem. Soc. 102 (1980) 939-947. doi:10.1021/ja00523a008
HELIUM (3s) -> [2s]
     2.0   0
* s-type functions
    3    2
         13.62670000
          1.99935000
          0.38299300
  0.175229871800  0.000000000000
  0.893482346500  0.000000000000
  0.000000000000  1.000000000000

/Li.5-21G.Dill.8s3p.3s2p.
J.D. Dill, J.A. Pople. J. Chem. Phys. 62 (1975) 2921-2923. doi:10.1063/1.430801
LITHIUM (8s,3p) -> [3s,2p]
     3.0   1
* s-type functions
    8    3
        275.39444400
         41.43517540
          9.36699378
          2.53772533
          0.74663654
      73456.42606e-5
      87197.96405e-6
      40438.65741e-6
  0.006121846910  0.000000000000  0.000000000000
  0.045112961500  0.000000000000  0.000000000000
  0.192694150000  0.000000000000  0.000000000000
  0.468544208000  0.000000000000  0.000000000000
  0.440607515000  0.000000000000  0.000000000000
  0.000000000000 -0.252536795800  0.000000000000
  0.000000000000  1.097340795000  0.000000000000
  0.000000000000  0.000000000000  1.000000000000
* p-type functions
    3    2
      73456.42606e-5
      87197.96405e-6
      40438.65741e-6
  0.143591732100  0.000000000000
  0.947803050600  0.000000000000
  0.000000000000  1.000000000000

/Be.5-21G.Binkley.8s3p.3s2p.
J.S. Binkley, J.A. Pople. J. Chem. Phys. 66 (1977) 879-880. doi:10.1063/1.433929
BERYLLIUM (8s,3p) -> [3s,2p]
     4.0   1
* s-type functions
    8    3
        554.01000000
         83.26310000
         18.86350000
          5.17782000
          1.55602000
      14417.52491e-4
      30186.10597e-5
      10096.13875e-5
  0.005409974372  0.000000000000  0.000000000000
  0.040251532530  0.000000000000  0.000000000000
  0.176858142900  0.000000000000  0.000000000000
  0.452559365700  0.000000000000  0.000000000000
  0.470293380000  0.000000000000  0.000000000000
  0.000000000000 -0.477429051600  0.000000000000
  0.000000000000  1.247450135000  0.000000000000
  0.000000000000  0.000000000000  1.000000000000
* p-type functions
    3    2
      14417.52491e-4
      30186.10597e-5
      10096.13875e-5
  0.201141899200  0.000000000000
  0.884482556900  0.000000000000
  0.000000000000  1.000000000000
