************************************************************************
* This file is part of OpenMolcas.                                     *
*                                                                      *
* OpenMolcas is free software; you can redistribute it and/or modify   *
* it under the terms of the GNU Lesser General Public License, v. 2.1. *
* OpenMolcas is distributed in the hope that it will be useful, but it *
* is provided "as is" and without any express or implied warranties.   *
* For more details see the full text of the license in the file        *
* LICENSE or in <http://www.gnu.org/licenses/>.                        *
************************************************************************

#Hamiltonian NRH
#Nucleus UNK
#Contraction SEG
#AllElectron AE_

************************************************************************
* This file has been generated from Basis Set Exchange data:           *
*   https://www.basissetexchange.org                                   *
* Version: 1  (Data from Gaussian 09/GAMESS)                           *
************************************************************************

/H.6-31G.Ditchfield.4s.2s.
R. Ditchfield, W.J. Hehre, J.A. Pople. J. Chem. Phys. 54 (1971) 724-728. doi:10.1063/1.1674902
HYDROGEN (4s) -> [2s]
     1.0   0
* s-type functions
    4    2
         18.73113696
      28253.94365e-4
      64012.16923e-5
      16127.77588e-5
  0.033494604340  0.000000000000
  0.234726953500  0.000000000000
  0.813757326100  0.000000000000
  0.000000000000  1.000000000000

/He.6-31G.Gaussian.4s.2s.
Gaussian 09 Revision E.01. M.J. Frisch et al. 2009
HELIUM (4s) -> [2s]
     2.0   0
* s-type functions
    4    2
         38.42163400
          5.77803000
          1.24177400
          0.29796400
  0.040139739350  0.000000000000
  0.261246097000  0.000000000000
  0.793184624600  0.000000000000
  0.000000000000  1.000000000000

/Li.6-31G.Dill.10s4p.3s2p.
J.D. Dill, J.A. Pople. J. Chem. Phys. 62 (1975) 2921-2923. doi:10.1063/1.430801
LITHIUM (10s,4p) -> [3s,2p]
     3.0   1
* s-type functions
   10    3
        642.41891500
         96.79851530
         22.09112120
          6.20107025
          1.93511768
       6367.35789e-4
      23249.18408e-4
      63243.03556e-5
      79053.43475e-6
      35961.97175e-6
  0.002142607810  0.000000000000  0.000000000000
  0.016208871500  0.000000000000  0.000000000000
  0.077315572500  0.000000000000  0.000000000000
  0.245786052000  0.000000000000  0.000000000000
  0.470189004000  0.000000000000  0.000000000000
  0.345470845000  0.000000000000  0.000000000000
  0.000000000000 -0.035091745740  0.000000000000
  0.000000000000 -0.191232843100  0.000000000000
  0.000000000000  1.083987795000  0.000000000000
  0.000000000000  0.000000000000  1.000000000000
* p-type functions
    4    2
      23249.18408e-4
      63243.03556e-5
      79053.43475e-6
      35961.97175e-6
  0.008941508043  0.000000000000
  0.141009464000  0.000000000000
  0.945363695300  0.000000000000
  0.000000000000  1.000000000000

/Be.6-31G.Binkley.10s4p.3s2p.
J.S. Binkley, J.A. Pople. J. Chem. Phys. 66 (1977) 879-880. doi:10.1063/1.433929
BERYLLIUM (10s,4p) -> [3s,2p]
     4.0   1
* s-type functions
   10    3
       1264.58569000
        189.93680600
         43.15908900
         12.09866270
          3.80632322
          1.27289030
      31964.63098e-4
      74781.33038e-5
      21996.63302e-5
       8230.99007e-5
  0.001944757590  0.000000000000  0.000000000000
  0.014835052000  0.000000000000  0.000000000000
  0.072090546290  0.000000000000  0.000000000000
  0.237154150000  0.000000000000  0.000000000000
  0.469198651900  0.000000000000  0.000000000000
  0.356520227900  0.000000000000  0.000000000000
  0.000000000000 -0.112648728500  0.000000000000
  0.000000000000 -0.229506407900  0.000000000000
  0.000000000000  1.186916764000  0.000000000000
  0.000000000000  0.000000000000  1.000000000000
* p-type functions
    4    2
      31964.63098e-4
      74781.33038e-5
      21996.63302e-5
       8230.99007e-5
  0.055980199800  0.000000000000
  0.261550611000  0.000000000000
  0.793972338900  0.000000000000
  0.000000000000  1.000000000000

/B.6-31G.Dill.10s4p.3s2p.
J.D. Dill, J.A. Pople. J. Chem. Phys. 62 (1975) 2921-2923. doi:10.1063/1.430801
BORON (10s,4p) -> [3s,2p]
     5.0   1
* s-type functions
   10    3
       2068.88225000
        310.64957000
         70.68303300
         19.86108030
          6.29930484
          2.12702697
      47279.71071e-4
      11903.37736e-4
      35941.16829e-5
      12675.12469e-5
  0.001866274590  0.000000000000  0.000000000000
  0.014251481700  0.000000000000  0.000000000000
  0.069551618500  0.000000000000  0.000000000000
  0.232572933000  0.000000000000  0.000000000000
  0.467078712000  0.000000000000  0.000000000000
  0.363431440000  0.000000000000  0.000000000000
  0.000000000000 -0.130393797400  0.000000000000
  0.000000000000 -0.130788951400  0.000000000000
  0.000000000000  1.130944484000  0.000000000000
  0.000000000000  0.000000000000  1.000000000000
* p-type functions
    4    2
      47279.71071e-4
      11903.37736e-4
      35941.16829e-5
      12675.12469e-5
  0.074597579920  0.000000000000
  0.307846677100  0.000000000000
  0.743456834200  0.000000000000
  0.000000000000  1.000000000000

/C.6-31G.Hehre.10s4p.3s2p.
W.J. Hehre, R. Ditchfield, J.A. Pople. J. Chem. Phys. 56 (1972) 2257-2261. doi:10.1063/1.1677527
CARBON (10s,4p) -> [3s,2p]
     6.0   1
* s-type functions
   10    3
       3047.52488000
        457.36951800
        103.94868500
         29.21015530
          9.28666296
          3.16392696
          7.86827235
          1.88128854
       5442.49258e-4
      16871.44782e-5
  0.001834737132  0.000000000000  0.000000000000
  0.014037322810  0.000000000000  0.000000000000
  0.068842622260  0.000000000000  0.000000000000
  0.232184443200  0.000000000000  0.000000000000
  0.467941348400  0.000000000000  0.000000000000
  0.362311985300  0.000000000000  0.000000000000
  0.000000000000 -0.119332419800  0.000000000000
  0.000000000000 -0.160854151700  0.000000000000
  0.000000000000  1.143456438000  0.000000000000
  0.000000000000  0.000000000000  1.000000000000
* p-type functions
    4    2
          7.86827235
          1.88128854
       5442.49258e-4
      16871.44782e-5
  0.068999066590  0.000000000000
  0.316423961000  0.000000000000
  0.744308290900  0.000000000000
  0.000000000000  1.000000000000

/N.6-31G.Hehre.10s4p.3s2p.
W.J. Hehre, R. Ditchfield, J.A. Pople. J. Chem. Phys. 56 (1972) 2257-2261. doi:10.1063/1.1677527
NITROGEN (10s,4p) -> [3s,2p]
     7.0   1
* s-type functions
   10    3
       4173.51146000
        627.45791100
        142.90209300
         40.23432930
         12.82021290
          4.39043701
         11.62636186
      27162.79807e-4
      77221.83966e-5
      21203.14975e-5
  0.001834772160  0.000000000000  0.000000000000
  0.013994627000  0.000000000000  0.000000000000
  0.068586551810  0.000000000000  0.000000000000
  0.232240873000  0.000000000000  0.000000000000
  0.469069948100  0.000000000000  0.000000000000
  0.360455199100  0.000000000000  0.000000000000
  0.000000000000 -0.114961181700  0.000000000000
  0.000000000000 -0.169117478600  0.000000000000
  0.000000000000  1.145851947000  0.000000000000
  0.000000000000  0.000000000000  1.000000000000
* p-type functions
    4    2
         11.62636186
      27162.79807e-4
      77221.83966e-5
      21203.14975e-5
  0.067579743880  0.000000000000
  0.323907295900  0.000000000000
  0.740895139800  0.000000000000
  0.000000000000  1.000000000000

/O.6-31G.Hehre.10s4p.3s2p.
W.J. Hehre, R. Ditchfield, J.A. Pople. J. Chem. Phys. 56 (1972) 2257-2261. doi:10.1063/1.1677527
OXYGEN (10s,4p) -> [3s,2p]
     8.0   1
* s-type functions
   10    3
       5484.67166000
        825.23494600
        188.04695800
         52.96450000
         16.89757040
          5.79963534
         15.53961625
      35999.33586e-4
          1.01376175
      27000.58226e-5
  0.001831074430  0.000000000000  0.000000000000
  0.013950172200  0.000000000000  0.000000000000
  0.068445078100  0.000000000000  0.000000000000
  0.232714336000  0.000000000000  0.000000000000
  0.470192898000  0.000000000000  0.000000000000
  0.358520853000  0.000000000000  0.000000000000
  0.000000000000 -0.110777549500  0.000000000000
  0.000000000000 -0.148026262700  0.000000000000
  0.000000000000  1.130767015000  0.000000000000
  0.000000000000  0.000000000000  1.000000000000
* p-type functions
    4    2
         15.53961625
      35999.33586e-4
          1.01376175
      27000.58226e-5
  0.070874268230  0.000000000000
  0.339752839100  0.000000000000
  0.727158577300  0.000000000000
  0.000000000000  1.000000000000

/F.6-31G.Hehre.10s4p.3s2p.
W.J. Hehre, R. Ditchfield, J.A. Pople. J. Chem. Phys. 56 (1972) 2257-2261. doi:10.1063/1.1677527
FLUORINE (10s,4p) -> [3s,2p]
     9.0   1
* s-type functions
   10    3
       7001.71309000
       1051.36609000
        239.28569000
         67.39744530
         21.51995730
          7.40310130
         20.84795280
          4.80830834
          1.34406986
       3581.51393e-4
  0.001819616901  0.000000000000  0.000000000000
  0.013916079610  0.000000000000  0.000000000000
  0.068405324530  0.000000000000  0.000000000000
  0.233185760100  0.000000000000  0.000000000000
  0.471267439200  0.000000000000  0.000000000000
  0.356618546200  0.000000000000  0.000000000000
  0.000000000000 -0.108506975100  0.000000000000
  0.000000000000 -0.146451658100  0.000000000000
  0.000000000000  1.128688581000  0.000000000000
  0.000000000000  0.000000000000  1.000000000000
* p-type functions
    4    2
         20.84795280
          4.80830834
          1.34406986
       3581.51393e-4
  0.071628724240  0.000000000000
  0.345912102700  0.000000000000
  0.722469956400  0.000000000000
  0.000000000000  1.000000000000

/Ne.6-31G.Gaussian.10s4p.3s2p.
Gaussian 09 Revision E.01. M.J. Frisch et al. 2009
NEON (10s,4p) -> [3s,2p]
    10.0   1
* s-type functions
   10    3
       8425.85153000
       1268.51940000
        289.62141400
         81.85900400
         26.25150790
          9.09472051
         26.53213100
          6.10175501
          1.69627153
          0.44581870
  0.001884348050  0.000000000000  0.000000000000
  0.014336899400  0.000000000000  0.000000000000
  0.070109623310  0.000000000000  0.000000000000
  0.237373266000  0.000000000000  0.000000000000
  0.473007126100  0.000000000000  0.000000000000
  0.348401241000  0.000000000000  0.000000000000
  0.000000000000 -0.107118287200  0.000000000000
  0.000000000000 -0.146163821300  0.000000000000
  0.000000000000  1.127773503000  0.000000000000
  0.000000000000  0.000000000000  1.000000000000
* p-type functions
    4    2
         26.53213100
          6.10175501
          1.69627153
          0.44581870
  0.071909588510  0.000000000000
  0.349513372000  0.000000000000
  0.719940512100  0.000000000000
  0.000000000000  1.000000000000

/Na.6-31G.Francl.16s10p.4s3p.
M.M. Francl, W.J. Pietro, W.J. Hehre, J.S. Binkley, M.S. Gordon, D.J. DeFrees, J.A. Pople. J. Chem. Phys. 77 (1982) 3654-3665. doi:10.1063/1.444267
SODIUM (16s,10p) -> [4s,3p]
    11.0   1
* s-type functions
   16    4
       9993.20000000
       1499.89000000
        341.95100000
         94.67960000
         29.73450000
         10.00630000
        150.96300000
         35.58780000
         11.16830000
          3.90201000
          1.38177000
          0.46638200
          0.49796600
          0.08435290
          0.06663500
          0.02595440
  0.001937659277  0.000000000000  0.000000000000  0.000000000000
  0.014806994480  0.000000000000  0.000000000000  0.000000000000
  0.072705472880  0.000000000000  0.000000000000  0.000000000000
  0.252628905800  0.000000000000  0.000000000000  0.000000000000
  0.493241816000  0.000000000000  0.000000000000  0.000000000000
  0.313168883200  0.000000000000  0.000000000000  0.000000000000
  0.000000000000 -0.003542083504  0.000000000000  0.000000000000
  0.000000000000 -0.043958843480  0.000000000000  0.000000000000
  0.000000000000 -0.109752108600  0.000000000000  0.000000000000
  0.000000000000  0.187398185400  0.000000000000  0.000000000000
  0.000000000000  0.646699639700  0.000000000000  0.000000000000
  0.000000000000  0.306058302700  0.000000000000  0.000000000000
  0.000000000000  0.000000000000 -0.248503159300  0.000000000000
  0.000000000000  0.000000000000 -0.131704084400  0.000000000000
  0.000000000000  0.000000000000  1.233520791000  0.000000000000
  0.000000000000  0.000000000000  0.000000000000  1.000000000000
* p-type functions
   10    3
        150.96300000
         35.58780000
         11.16830000
          3.90201000
          1.38177000
          0.46638200
          0.49796600
          0.08435290
          0.06663500
          0.02595440
  0.005001659710  0.000000000000  0.000000000000
  0.035510897940  0.000000000000  0.000000000000
  0.142824991700  0.000000000000  0.000000000000
  0.338619980300  0.000000000000  0.000000000000
  0.451578973800  0.000000000000  0.000000000000
  0.273270984100  0.000000000000  0.000000000000
  0.000000000000 -0.023022500430  0.000000000000
  0.000000000000  0.950359017600  0.000000000000
  0.000000000000  0.059857901110  0.000000000000
  0.000000000000  0.000000000000  1.000000000000

/Mg.6-31G.Francl.16s10p.4s3p.
M.M. Francl, W.J. Pietro, W.J. Hehre, J.S. Binkley, M.S. Gordon, D.J. DeFrees, J.A. Pople. J. Chem. Phys. 77 (1982) 3654-3665. doi:10.1063/1.444267
MAGNESIUM (16s,10p) -> [4s,3p]
    12.0   1
* s-type functions
   16    4
      11722.80000000
       1759.93000000
        400.84600000
        112.80700000
         35.99970000
         12.18280000
        189.18000000
         45.21190000
         14.35630000
          5.13886000
          1.90652000
          0.70588700
          0.92934000
          0.26903500
          0.11737900
          0.04210610
  0.001977829317  0.000000000000  0.000000000000  0.000000000000
  0.015113994780  0.000000000000  0.000000000000  0.000000000000
  0.073910774480  0.000000000000  0.000000000000  0.000000000000
  0.249190914000  0.000000000000  0.000000000000  0.000000000000
  0.487927831600  0.000000000000  0.000000000000  0.000000000000
  0.319661889600  0.000000000000  0.000000000000  0.000000000000
  0.000000000000 -0.003237170471  0.000000000000  0.000000000000
  0.000000000000 -0.041007905970  0.000000000000  0.000000000000
  0.000000000000 -0.112600016400  0.000000000000  0.000000000000
  0.000000000000  0.148633021600  0.000000000000  0.000000000000
  0.000000000000  0.616497089800  0.000000000000  0.000000000000
  0.000000000000  0.364829053100  0.000000000000  0.000000000000
  0.000000000000  0.000000000000 -0.212290898500  0.000000000000
  0.000000000000  0.000000000000 -0.107985457000  0.000000000000
  0.000000000000  0.000000000000  1.175844977000  0.000000000000
  0.000000000000  0.000000000000  0.000000000000  1.000000000000
* p-type functions
   10    3
        189.18000000
         45.21190000
         14.35630000
          5.13886000
          1.90652000
          0.70588700
          0.92934000
          0.26903500
          0.11737900
          0.04210610
  0.004928129921  0.000000000000  0.000000000000
  0.034988799440  0.000000000000  0.000000000000
  0.140724997700  0.000000000000  0.000000000000
  0.333641994700  0.000000000000  0.000000000000
  0.444939992900  0.000000000000  0.000000000000
  0.269253995700  0.000000000000  0.000000000000
  0.000000000000 -0.022419181230  0.000000000000
  0.000000000000  0.192270839000  0.000000000000
  0.000000000000  0.846180291600  0.000000000000
  0.000000000000  0.000000000000  1.000000000000

/Al.6-31G.Francl.16s10p.4s3p.
M.M. Francl, W.J. Pietro, W.J. Hehre, J.S. Binkley, M.S. Gordon, D.J. DeFrees, J.A. Pople. J. Chem. Phys. 77 (1982) 3654-3665. doi:10.1063/1.444267
ALUMINIUM (16s,10p) -> [4s,3p]
    13.0   1
* s-type functions
   16    4
      13983.10000000
       2098.75000000
        477.70500000
        134.36000000
         42.87090000
         14.51890000
        239.66800000
         57.44190000
         18.28590000
          6.59914000
          2.49049000
          0.94454500
          1.27790000
          0.39759000
          0.16009500
          0.05565770
  0.001942669947  0.000000000000  0.000000000000  0.000000000000
  0.014859899590  0.000000000000  0.000000000000  0.000000000000
  0.072849398000  0.000000000000  0.000000000000  0.000000000000
  0.246829993200  0.000000000000  0.000000000000  0.000000000000
  0.487257986600  0.000000000000  0.000000000000  0.000000000000
  0.323495991100  0.000000000000  0.000000000000  0.000000000000
  0.000000000000 -0.002926190028  0.000000000000  0.000000000000
  0.000000000000 -0.037408300360  0.000000000000  0.000000000000
  0.000000000000 -0.114487001100  0.000000000000  0.000000000000
  0.000000000000  0.115635001100  0.000000000000  0.000000000000
  0.000000000000  0.612595005800  0.000000000000  0.000000000000
  0.000000000000  0.393799003700  0.000000000000  0.000000000000
  0.000000000000  0.000000000000 -0.227606924500  0.000000000000
  0.000000000000  0.000000000000  0.001445835873  0.000000000000
  0.000000000000  0.000000000000  1.092794439000  0.000000000000
  0.000000000000  0.000000000000  0.000000000000  1.000000000000
* p-type functions
   10    3
        239.66800000
         57.44190000
         18.28590000
          6.59914000
          2.49049000
          0.94454500
          1.27790000
          0.39759000
          0.16009500
          0.05565770
  0.004602845582  0.000000000000  0.000000000000
  0.033198968130  0.000000000000  0.000000000000
  0.136281869200  0.000000000000  0.000000000000
  0.330475682800  0.000000000000  0.000000000000
  0.449145568900  0.000000000000  0.000000000000
  0.265703745000  0.000000000000  0.000000000000
  0.000000000000 -0.017512601890  0.000000000000
  0.000000000000  0.244533026400  0.000000000000
  0.000000000000  0.804934086700  0.000000000000
  0.000000000000  0.000000000000  1.000000000000

/Si.6-31G.Francl.16s10p.4s3p.
M.M. Francl, W.J. Pietro, W.J. Hehre, J.S. Binkley, M.S. Gordon, D.J. DeFrees, J.A. Pople. J. Chem. Phys. 77 (1982) 3654-3665. doi:10.1063/1.444267
SILICON (16s,10p) -> [4s,3p]
    14.0   1
* s-type functions
   16    4
      16115.90000000
       2425.58000000
        553.86700000
        156.34000000
         50.06830000
         17.01780000
        292.71800000
         69.87310000
         22.33630000
          8.15039000
          3.13458000
          1.22543000
          1.72738000
          0.57292200
          0.22219200
          0.07783690
  0.001959480216  0.000000000000  0.000000000000  0.000000000000
  0.014928801640  0.000000000000  0.000000000000  0.000000000000
  0.072847808010  0.000000000000  0.000000000000  0.000000000000
  0.246130027100  0.000000000000  0.000000000000  0.000000000000
  0.485914053500  0.000000000000  0.000000000000  0.000000000000
  0.325002035800  0.000000000000  0.000000000000  0.000000000000
  0.000000000000 -0.002780941415  0.000000000000  0.000000000000
  0.000000000000 -0.035714618170  0.000000000000  0.000000000000
  0.000000000000 -0.114985058500  0.000000000000  0.000000000000
  0.000000000000  0.093563447600  0.000000000000  0.000000000000
  0.000000000000  0.603017306800  0.000000000000  0.000000000000
  0.000000000000  0.418959213100  0.000000000000  0.000000000000
  0.000000000000  0.000000000000 -0.244631004200  0.000000000000
  0.000000000000  0.000000000000  0.004315737717  0.000000000000
  0.000000000000  0.000000000000  1.098184508000  0.000000000000
  0.000000000000  0.000000000000  0.000000000000  1.000000000000
* p-type functions
   10    3
        292.71800000
         69.87310000
         22.33630000
          8.15039000
          3.13458000
          1.22543000
          1.72738000
          0.57292200
          0.22219200
          0.07783690
  0.004438264521  0.000000000000  0.000000000000
  0.032667933280  0.000000000000  0.000000000000
  0.134721137200  0.000000000000  0.000000000000
  0.328678334800  0.000000000000  0.000000000000
  0.449640458000  0.000000000000  0.000000000000
  0.261372266200  0.000000000000  0.000000000000
  0.000000000000 -0.017795106050  0.000000000000
  0.000000000000  0.253539086300  0.000000000000
  0.000000000000  0.800669272400  0.000000000000
  0.000000000000  0.000000000000  1.000000000000

/P.6-31G.Francl.16s10p.4s3p.
M.M. Francl, W.J. Pietro, W.J. Hehre, J.S. Binkley, M.S. Gordon, D.J. DeFrees, J.A. Pople. J. Chem. Phys. 77 (1982) 3654-3665. doi:10.1063/1.444267
PHOSPHORUS (16s,10p) -> [4s,3p]
    15.0   1
* s-type functions
   16    4
      19413.30000000
       2909.42000000
        661.36400000
        185.75900000
         59.19430000
         20.03100000
        339.47800000
         81.01010000
         25.87800000
          9.45221000
          3.66566000
          1.46746000
          2.15623000
          0.74899700
          0.28314500
          0.09983170
  0.001851598923  0.000000000000  0.000000000000  0.000000000000
  0.014206191740  0.000000000000  0.000000000000  0.000000000000
  0.069999459280  0.000000000000  0.000000000000  0.000000000000
  0.240078860300  0.000000000000  0.000000000000  0.000000000000
  0.484761718000  0.000000000000  0.000000000000  0.000000000000
  0.335199805000  0.000000000000  0.000000000000  0.000000000000
  0.000000000000 -0.002782170105  0.000000000000  0.000000000000
  0.000000000000 -0.036049901350  0.000000000000  0.000000000000
  0.000000000000 -0.116631004400  0.000000000000  0.000000000000
  0.000000000000  0.096832803640  0.000000000000  0.000000000000
  0.000000000000  0.614418023100  0.000000000000  0.000000000000
  0.000000000000  0.403798015200  0.000000000000  0.000000000000
  0.000000000000  0.000000000000 -0.252924113900  0.000000000000
  0.000000000000  0.000000000000  0.032851844680  0.000000000000
  0.000000000000  0.000000000000  1.081254762000  0.000000000000
  0.000000000000  0.000000000000  0.000000000000  1.000000000000
* p-type functions
   10    3
        339.47800000
         81.01010000
         25.87800000
          9.45221000
          3.66566000
          1.46746000
          2.15623000
          0.74899700
          0.28314500
          0.09983170
  0.004564616191  0.000000000000  0.000000000000
  0.033693571880  0.000000000000  0.000000000000
  0.139754883400  0.000000000000  0.000000000000
  0.339361716800  0.000000000000  0.000000000000
  0.450920623700  0.000000000000  0.000000000000
  0.238585800900  0.000000000000  0.000000000000
  0.000000000000 -0.017765312730  0.000000000000
  0.000000000000  0.274058196400  0.000000000000
  0.000000000000  0.785421563000  0.000000000000
  0.000000000000  0.000000000000  1.000000000000

/S.6-31G.Francl.16s10p.4s3p.
M.M. Francl, W.J. Pietro, W.J. Hehre, J.S. Binkley, M.S. Gordon, D.J. DeFrees, J.A. Pople. J. Chem. Phys. 77 (1982) 3654-3665. doi:10.1063/1.444267
SULFUR (16s,10p) -> [4s,3p]
    16.0   1
* s-type functions
   16    4
      21917.10000000
       3301.49000000
        754.14600000
        212.71100000
         67.98960000
         23.05150000
        423.73500000
        100.71000000
         32.15990000
         11.80790000
          4.63110000
          1.87025000
          2.61584000
          0.92216700
          0.34128700
          0.11716700
  0.001869240849  0.000000000000  0.000000000000  0.000000000000
  0.014230306460  0.000000000000  0.000000000000  0.000000000000
  0.069696231660  0.000000000000  0.000000000000  0.000000000000
  0.238487108300  0.000000000000  0.000000000000  0.000000000000
  0.483307219500  0.000000000000  0.000000000000  0.000000000000
  0.338074153600  0.000000000000  0.000000000000  0.000000000000
  0.000000000000 -0.002376770499  0.000000000000  0.000000000000
  0.000000000000 -0.031693006650  0.000000000000  0.000000000000
  0.000000000000 -0.113317023800  0.000000000000  0.000000000000
  0.000000000000  0.056090011770  0.000000000000  0.000000000000
  0.000000000000  0.592255124300  0.000000000000  0.000000000000
  0.000000000000  0.455006095500  0.000000000000  0.000000000000
  0.000000000000  0.000000000000 -0.250373114200  0.000000000000
  0.000000000000  0.000000000000  0.066956763100  0.000000000000
  0.000000000000  0.000000000000  1.054506269000  0.000000000000
  0.000000000000  0.000000000000  0.000000000000  1.000000000000
* p-type functions
   10    3
        423.73500000
        100.71000000
         32.15990000
         11.80790000
          4.63110000
          1.87025000
          2.61584000
          0.92216700
          0.34128700
          0.11716700
  0.004061009982  0.000000000000  0.000000000000
  0.030681299860  0.000000000000  0.000000000000
  0.130451999400  0.000000000000  0.000000000000
  0.327204998500  0.000000000000  0.000000000000
  0.452850998000  0.000000000000  0.000000000000
  0.256041998900  0.000000000000  0.000000000000
  0.000000000000 -0.014510489550  0.000000000000
  0.000000000000  0.310262776500  0.000000000000
  0.000000000000  0.754482456500  0.000000000000
  0.000000000000  0.000000000000  1.000000000000

/Cl.6-31G.Francl.16s10p.4s3p.
M.M. Francl, W.J. Pietro, W.J. Hehre, J.S. Binkley, M.S. Gordon, D.J. DeFrees, J.A. Pople. J. Chem. Phys. 77 (1982) 3654-3665. doi:10.1063/1.444267
CHLORINE (16s,10p) -> [4s,3p]
    17.0   1
* s-type functions
   16    4
      25180.10000000
       3780.35000000
        860.47400000
        242.14500000
         77.33490000
         26.24700000
        491.76500000
        116.98400000
         37.41530000
         13.78340000
          5.45215000
          2.22588000
          3.18649000
          1.14427000
          0.42037700
          0.14265700
  0.001832959848  0.000000000000  0.000000000000  0.000000000000
  0.014034198830  0.000000000000  0.000000000000  0.000000000000
  0.069097394260  0.000000000000  0.000000000000  0.000000000000
  0.237451980300  0.000000000000  0.000000000000  0.000000000000
  0.483033959900  0.000000000000  0.000000000000  0.000000000000
  0.339855971800  0.000000000000  0.000000000000  0.000000000000
  0.000000000000 -0.002297391417  0.000000000000  0.000000000000
  0.000000000000 -0.030713718940  0.000000000000  0.000000000000
  0.000000000000 -0.112528069400  0.000000000000  0.000000000000
  0.000000000000  0.045016327760  0.000000000000  0.000000000000
  0.000000000000  0.589353363400  0.000000000000  0.000000000000
  0.000000000000  0.465206286800  0.000000000000  0.000000000000
  0.000000000000  0.000000000000 -0.251828028000  0.000000000000
  0.000000000000  0.000000000000  0.061589251410  0.000000000000
  0.000000000000  0.000000000000  1.060184328000  0.000000000000
  0.000000000000  0.000000000000  0.000000000000  1.000000000000
* p-type functions
   10    3
        491.76500000
        116.98400000
         37.41530000
         13.78340000
          5.45215000
          2.22588000
          3.18649000
          1.14427000
          0.42037700
          0.14265700
  0.003989400879  0.000000000000  0.000000000000
  0.030317706680  0.000000000000  0.000000000000
  0.129880028600  0.000000000000  0.000000000000
  0.327951072300  0.000000000000  0.000000000000
  0.453527100000  0.000000000000  0.000000000000
  0.252154055600  0.000000000000  0.000000000000
  0.000000000000 -0.014299314720  0.000000000000
  0.000000000000  0.323572333100  0.000000000000
  0.000000000000  0.743507765300  0.000000000000
  0.000000000000  0.000000000000  1.000000000000

/Ar.6-31G.Francl.16s10p.4s3p.
M.M. Francl, W.J. Pietro, W.J. Hehre, J.S. Binkley, M.S. Gordon, D.J. DeFrees, J.A. Pople. J. Chem. Phys. 77 (1982) 3654-3665. doi:10.1063/1.444267
ARGON (16s,10p) -> [4s,3p]
    18.0   1
* s-type functions
   16    4
      28348.30000000
       4257.62000000
        969.85700000
        273.26300000
         87.36950000
         29.68670000
        575.89100000
        136.81600000
         43.80980000
         16.20940000
          6.46084000
          2.65114000
          3.86028000
          1.41373000
          0.51664600
          0.17388800
  0.001825260192  0.000000000000  0.000000000000  0.000000000000
  0.013968601470  0.000000000000  0.000000000000  0.000000000000
  0.068707307230  0.000000000000  0.000000000000  0.000000000000
  0.236204024900  0.000000000000  0.000000000000  0.000000000000
  0.482214050800  0.000000000000  0.000000000000  0.000000000000
  0.342043036000  0.000000000000  0.000000000000  0.000000000000
  0.000000000000 -0.002159720895  0.000000000000  0.000000000000
  0.000000000000 -0.029077512060  0.000000000000  0.000000000000
  0.000000000000 -0.110827046000  0.000000000000  0.000000000000
  0.000000000000  0.027699911480  0.000000000000  0.000000000000
  0.000000000000  0.577613239500  0.000000000000  0.000000000000
  0.000000000000  0.488688202600  0.000000000000  0.000000000000
  0.000000000000  0.000000000000 -0.255592960400  0.000000000000
  0.000000000000  0.000000000000  0.037806742060  0.000000000000
  0.000000000000  0.000000000000  1.080564060000  0.000000000000
  0.000000000000  0.000000000000  0.000000000000  1.000000000000
* p-type functions
   10    3
        575.89100000
        136.81600000
         43.80980000
         16.20940000
          6.46084000
          2.65114000
          3.86028000
          1.41373000
          0.51664600
          0.17388800
  0.003806649842  0.000000000000  0.000000000000
  0.029230498790  0.000000000000  0.000000000000
  0.126466994800  0.000000000000  0.000000000000
  0.323509986600  0.000000000000  0.000000000000
  0.454895981100  0.000000000000  0.000000000000
  0.256629989400  0.000000000000  0.000000000000
  0.000000000000 -0.015919690400  0.000000000000
  0.000000000000  0.324645804200  0.000000000000
  0.000000000000  0.743989551200  0.000000000000
  0.000000000000  0.000000000000  1.000000000000

/K.6-31G.Rassolov.22s16p4d.5s4p2d.
V.A. Rassolov, M.A. Ratner, J.A. Pople, P.C. Redfern, L.A. Curtiss. J. Comput. Chem. 22 (2001) 976-984. doi:10.1002/jcc.1058.abs
POTASSIUM (22s,16p,4d) -> [5s,4p,2d]
Options
Cartesian d
EndOptions
    19.0   2
* s-type functions
   22    5
      31594.42000000
       4744.33000000
       1080.41900000
        304.23380000
         97.24586000
         33.02495000
        622.76250000
        147.88390000
         47.32735000
         17.51495000
          6.92272200
          2.76827700
         11.84802000
          4.07921100
          1.76348100
          0.78892700
          0.35038700
          0.14634400
          0.71680100
          0.23374100
          0.03867500
          0.01652100
  0.001828009922  0.000000000000  0.000000000000  0.000000000000  0.000000000000
  0.013994029400  0.000000000000  0.000000000000  0.000000000000  0.000000000000
  0.068871287070  0.000000000000  0.000000000000  0.000000000000  0.000000000000
  0.236975989900  0.000000000000  0.000000000000  0.000000000000  0.000000000000
  0.482903979400  0.000000000000  0.000000000000  0.000000000000  0.000000000000
  0.340479485500  0.000000000000  0.000000000000  0.000000000000  0.000000000000
  0.000000000000 -0.002502975932  0.000000000000  0.000000000000  0.000000000000
  0.000000000000 -0.033155499100  0.000000000000  0.000000000000  0.000000000000
  0.000000000000 -0.122638696700  0.000000000000  0.000000000000  0.000000000000
  0.000000000000  0.053536428550  0.000000000000  0.000000000000  0.000000000000
  0.000000000000  0.619385983200  0.000000000000  0.000000000000  0.000000000000
  0.000000000000  0.434587788200  0.000000000000  0.000000000000  0.000000000000
  0.000000000000  0.000000000000  0.012776890270  0.000000000000  0.000000000000
  0.000000000000  0.000000000000  0.209876704400  0.000000000000  0.000000000000
  0.000000000000  0.000000000000 -0.003095274065  0.000000000000  0.000000000000
  0.000000000000  0.000000000000 -0.559388411700  0.000000000000  0.000000000000
  0.000000000000  0.000000000000 -0.513476010700  0.000000000000  0.000000000000
  0.000000000000  0.000000000000 -0.065980351380  0.000000000000  0.000000000000
  0.000000000000  0.000000000000  0.000000000000 -0.052377661570  0.000000000000
  0.000000000000  0.000000000000  0.000000000000 -0.279849987800  0.000000000000
  0.000000000000  0.000000000000  0.000000000000  1.141545727000  0.000000000000
  0.000000000000  0.000000000000  0.000000000000  0.000000000000  1.000000000000
* p-type functions
   16    4
        622.76250000
        147.88390000
         47.32735000
         17.51495000
          6.92272200
          2.76827700
         11.84802000
          4.07921100
          1.76348100
          0.78892700
          0.35038700
          0.14634400
          0.71680100
          0.23374100
          0.03867500
          0.01652100
  0.004094636754  0.000000000000  0.000000000000  0.000000000000
  0.031451988110  0.000000000000  0.000000000000  0.000000000000
  0.135155791900  0.000000000000  0.000000000000  0.000000000000
  0.339049979600  0.000000000000  0.000000000000  0.000000000000
  0.462945472200  0.000000000000  0.000000000000  0.000000000000
  0.224263786500  0.000000000000  0.000000000000  0.000000000000
  0.000000000000 -0.012213771610  0.000000000000  0.000000000000
  0.000000000000 -0.006900537911  0.000000000000  0.000000000000
  0.000000000000  0.200746626500  0.000000000000  0.000000000000
  0.000000000000  0.428133256500  0.000000000000  0.000000000000
  0.000000000000  0.397015652400  0.000000000000  0.000000000000
  0.000000000000  0.110471814600  0.000000000000  0.000000000000
  0.000000000000  0.000000000000  0.031643000530  0.000000000000
  0.000000000000  0.000000000000 -0.040461600680  0.000000000000
  0.000000000000  0.000000000000  1.012029017000  0.000000000000
  0.000000000000  0.000000000000  0.000000000000  1.000000000000
* d-type functions
    4    2
          9.02907800
          2.28504500
          0.66389200
          0.17938900
  0.087476720000  0.000000000000
  0.379563500000  0.000000000000
  0.718039300000  0.000000000000
  0.000000000000  1.000000000000

/Ca.6-31G.Rassolov.22s16p4d.5s4p2d.
V.A. Rassolov, M.A. Ratner, J.A. Pople, P.C. Redfern, L.A. Curtiss. J. Comput. Chem. 22 (2001) 976-984. doi:10.1002/jcc.1058.abs
CALCIUM (22s,16p,4d) -> [5s,4p,2d]
Options
Cartesian d
EndOptions
    20.0   2
* s-type functions
   22    5
      35264.86000000
       5295.50300000
       1206.02000000
        339.68390000
        108.62640000
         36.92103000
        706.30960000
        167.81870000
         53.82558000
         20.01638000
          7.97027900
          3.21205900
         14.19518000
          4.88082800
          2.16039000
          0.98789900
          0.44951700
          0.18738700
          1.03227100
          0.38117100
          0.06513100
          0.02601000
  0.001813501124  0.000000000000  0.000000000000  0.000000000000  0.000000000000
  0.013884930950  0.000000000000  0.000000000000  0.000000000000  0.000000000000
  0.068361624690  0.000000000000  0.000000000000  0.000000000000  0.000000000000
  0.235618816200  0.000000000000  0.000000000000  0.000000000000  0.000000000000
  0.482063933100  0.000000000000  0.000000000000  0.000000000000  0.000000000000
  0.342981923500  0.000000000000  0.000000000000  0.000000000000  0.000000000000
  0.000000000000  0.002448225082  0.000000000000  0.000000000000  0.000000000000
  0.000000000000  0.032415041090  0.000000000000  0.000000000000  0.000000000000
  0.000000000000  0.122621904100  0.000000000000  0.000000000000  0.000000000000
  0.000000000000 -0.043169651450  0.000000000000  0.000000000000  0.000000000000
  0.000000000000 -0.612699520600  0.000000000000  0.000000000000  0.000000000000
  0.000000000000 -0.448754015100  0.000000000000  0.000000000000  0.000000000000
  0.000000000000  0.000000000000  0.010845000550  0.000000000000  0.000000000000
  0.000000000000  0.000000000000  0.208833310700  0.000000000000  0.000000000000
  0.000000000000  0.000000000000  0.031503381610  0.000000000000  0.000000000000
  0.000000000000  0.000000000000 -0.552651828200  0.000000000000  0.000000000000
  0.000000000000  0.000000000000 -0.543799727700  0.000000000000  0.000000000000
  0.000000000000  0.000000000000 -0.066693423400  0.000000000000  0.000000000000
  0.000000000000  0.000000000000  0.000000000000 -0.044397180860  0.000000000000
  0.000000000000  0.000000000000  0.000000000000 -0.328456158400  0.000000000000
  0.000000000000  0.000000000000  0.000000000000  1.163009499000  0.000000000000
  0.000000000000  0.000000000000  0.000000000000  0.000000000000  1.000000000000
* p-type functions
   16    4
        706.30960000
        167.81870000
         53.82558000
         20.01638000
          7.97027900
          3.21205900
         14.19518000
          4.88082800
          2.16039000
          0.98789900
          0.44951700
          0.18738700
          1.03227100
          0.38117100
          0.06513100
          0.02601000
  0.004020370978  0.000000000000  0.000000000000  0.000000000000
  0.031006009830  0.000000000000  0.000000000000  0.000000000000
  0.133727899300  0.000000000000  0.000000000000  0.000000000000
  0.336798298200  0.000000000000  0.000000000000  0.000000000000
  0.463128097500  0.000000000000  0.000000000000  0.000000000000
  0.225753198800  0.000000000000  0.000000000000  0.000000000000
  0.000000000000 -0.012896211380  0.000000000000  0.000000000000
  0.000000000000 -0.010251981100  0.000000000000  0.000000000000
  0.000000000000  0.195978120900  0.000000000000  0.000000000000
  0.000000000000  0.435793346600  0.000000000000  0.000000000000
  0.000000000000  0.399645242700  0.000000000000  0.000000000000
  0.000000000000  0.097136370380  0.000000000000  0.000000000000
  0.000000000000  0.000000000000 -0.429862097400  0.000000000000
  0.000000000000  0.000000000000  0.006935828957  0.000000000000
  0.000000000000  0.000000000000  0.970593294000  0.000000000000
  0.000000000000  0.000000000000  0.000000000000  1.000000000000
* d-type functions
    4    2
         10.11067000
          2.55876900
          0.74342000
          0.20087800
  0.087476720000  0.000000000000
  0.379563500000  0.000000000000
  0.718039300000  0.000000000000
  0.000000000000  1.000000000000

/Sc.6-31G.Rassolov.22s16p4d.5s4p2d.
V.A. Rassolov, J.A. Pople, M.A. Ratner, T.L. Windus. J. Chem. Phys. 109 (1998) 1223-1229. doi:10.1063/1.476673
SCANDIUM (22s,16p,4d) -> [5s,4p,2d]
Options
Cartesian d
EndOptions
    21.0   2
* s-type functions
   22    5
      39088.98000000
       5869.79200000
       1336.91000000
        376.60310000
        120.46790000
         40.98032000
        786.28520000
        186.88700000
         60.00935000
         22.25883000
          8.88514900
          3.60921100
         29.84355000
          9.54238300
          4.05679000
          1.70470300
          0.70623400
          0.27953600
          1.06560900
          0.42593300
          0.07632000
          0.02959400
  0.001803262955  0.000000000000  0.000000000000  0.000000000000  0.000000000000
  0.013807689650  0.000000000000  0.000000000000  0.000000000000  0.000000000000
  0.068003958290  0.000000000000  0.000000000000  0.000000000000  0.000000000000
  0.234709894100  0.000000000000  0.000000000000  0.000000000000  0.000000000000
  0.481568987900  0.000000000000  0.000000000000  0.000000000000  0.000000000000
  0.344565191300  0.000000000000  0.000000000000  0.000000000000  0.000000000000
  0.000000000000  0.002451863032  0.000000000000  0.000000000000  0.000000000000
  0.000000000000  0.032595790420  0.000000000000  0.000000000000  0.000000000000
  0.000000000000  0.123824201600  0.000000000000  0.000000000000  0.000000000000
  0.000000000000 -0.043598900570  0.000000000000  0.000000000000  0.000000000000
  0.000000000000 -0.617718108000  0.000000000000  0.000000000000  0.000000000000
  0.000000000000 -0.443282305800  0.000000000000  0.000000000000  0.000000000000
  0.000000000000  0.000000000000 -0.002586302031  0.000000000000  0.000000000000
  0.000000000000  0.000000000000  0.071884240850  0.000000000000  0.000000000000
  0.000000000000  0.000000000000  0.250326003000  0.000000000000  0.000000000000
  0.000000000000  0.000000000000 -0.299100303500  0.000000000000  0.000000000000
  0.000000000000  0.000000000000 -0.744681808800  0.000000000000  0.000000000000
  0.000000000000  0.000000000000 -0.179977602100  0.000000000000  0.000000000000
  0.000000000000  0.000000000000  0.000000000000  0.064829782230  0.000000000000
  0.000000000000  0.000000000000  0.000000000000  0.325375611200  0.000000000000
  0.000000000000  0.000000000000  0.000000000000 -1.170806040000  0.000000000000
  0.000000000000  0.000000000000  0.000000000000  0.000000000000  1.000000000000
* p-type functions
   16    4
        786.28520000
        186.88700000
         60.00935000
         22.25883000
          8.88514900
          3.60921100
         29.84355000
          9.54238300
          4.05679000
          1.70470300
          0.70623400
          0.27953600
          1.06560900
          0.42593300
          0.07632000
          0.02959400
  0.004039529691  0.000000000000  0.000000000000  0.000000000000
  0.031225697610  0.000000000000  0.000000000000  0.000000000000
  0.134983289700  0.000000000000  0.000000000000  0.000000000000
  0.342479273800  0.000000000000  0.000000000000  0.000000000000
  0.462311264600  0.000000000000  0.000000000000  0.000000000000
  0.217752383300  0.000000000000  0.000000000000  0.000000000000
  0.000000000000 -0.006096652719  0.000000000000  0.000000000000
  0.000000000000 -0.026288843100  0.000000000000  0.000000000000
  0.000000000000  0.050910016010  0.000000000000  0.000000000000
  0.000000000000  0.379809744800  0.000000000000  0.000000000000
  0.000000000000  0.517088361000  0.000000000000  0.000000000000
  0.000000000000  0.182977221600  0.000000000000  0.000000000000
  0.000000000000  0.000000000000 -0.293843998900  0.000000000000
  0.000000000000  0.000000000000  0.092353229670  0.000000000000
  0.000000000000  0.000000000000  0.984792996500  0.000000000000
  0.000000000000  0.000000000000  0.000000000000  1.000000000000
* d-type functions
    4    2
         11.14701000
          2.82104300
          0.81962000
          0.22146800
  0.087476722980  0.000000000000
  0.379563512900  0.000000000000
  0.718039324400  0.000000000000
  0.000000000000  1.000000000000

/Ti.6-31G.Rassolov.22s16p4d.5s4p2d.
V.A. Rassolov, J.A. Pople, M.A. Ratner, T.L. Windus. J. Chem. Phys. 109 (1998) 1223-1229. doi:10.1063/1.476673
TITANIUM (22s,16p,4d) -> [5s,4p,2d]
Options
Cartesian d
EndOptions
    22.0   2
* s-type functions
   22    5
      43152.95000000
       6479.57100000
       1475.67500000
        415.69910000
        133.00060000
         45.27222000
        874.68260000
        207.97850000
         66.87918000
         24.87347000
          9.96844100
          4.06382600
         33.64363000
         10.87565000
          4.62822500
          1.95012600
          0.80945200
          0.32047400
          1.22414800
          0.48426300
          0.08409600
          0.03203600
  0.001791871976  0.000000000000  0.000000000000  0.000000000000  0.000000000000
  0.013723919820  0.000000000000  0.000000000000  0.000000000000  0.000000000000
  0.067628299110  0.000000000000  0.000000000000  0.000000000000  0.000000000000
  0.233764196900  0.000000000000  0.000000000000  0.000000000000  0.000000000000
  0.481069593700  0.000000000000  0.000000000000  0.000000000000  0.000000000000
  0.346227995400  0.000000000000  0.000000000000  0.000000000000  0.000000000000
  0.000000000000  0.002431008053  0.000000000000  0.000000000000  0.000000000000
  0.000000000000  0.032330270710  0.000000000000  0.000000000000  0.000000000000
  0.000000000000  0.124252002700  0.000000000000  0.000000000000  0.000000000000
  0.000000000000 -0.039039050850  0.000000000000  0.000000000000  0.000000000000
  0.000000000000 -0.617178913500  0.000000000000  0.000000000000  0.000000000000
  0.000000000000 -0.447309709800  0.000000000000  0.000000000000  0.000000000000
  0.000000000000  0.000000000000 -0.002940357957  0.000000000000  0.000000000000
  0.000000000000  0.000000000000  0.071631028940  0.000000000000  0.000000000000
  0.000000000000  0.000000000000  0.252891496300  0.000000000000  0.000000000000
  0.000000000000  0.000000000000 -0.296640095600  0.000000000000  0.000000000000
  0.000000000000  0.000000000000 -0.743221489000  0.000000000000  0.000000000000
  0.000000000000  0.000000000000 -0.185351997300  0.000000000000  0.000000000000
  0.000000000000  0.000000000000  0.000000000000  0.063514607170  0.000000000000
  0.000000000000  0.000000000000  0.000000000000  0.315140187500  0.000000000000
  0.000000000000  0.000000000000  0.000000000000 -1.162594216000  0.000000000000
  0.000000000000  0.000000000000  0.000000000000  0.000000000000  1.000000000000
* p-type functions
   16    4
        874.68260000
        207.97850000
         66.87918000
         24.87347000
          9.96844100
          4.06382600
         33.64363000
         10.87565000
          4.62822500
          1.95012600
          0.80945200
          0.32047400
          1.22414800
          0.48426300
          0.08409600
          0.03203600
  0.004017679296  0.000000000000  0.000000000000  0.000000000000
  0.031139662300  0.000000000000  0.000000000000  0.000000000000
  0.134907710000  0.000000000000  0.000000000000  0.000000000000
  0.343167225300  0.000000000000  0.000000000000  0.000000000000
  0.462576034100  0.000000000000  0.000000000000  0.000000000000
  0.215460315900  0.000000000000  0.000000000000  0.000000000000
  0.000000000000 -0.006311620001  0.000000000000  0.000000000000
  0.000000000000 -0.026976380000  0.000000000000  0.000000000000
  0.000000000000  0.053168470010  0.000000000000  0.000000000000
  0.000000000000  0.384554900000  0.000000000000  0.000000000000
  0.000000000000  0.512766200100  0.000000000000  0.000000000000
  0.000000000000  0.181113500000  0.000000000000  0.000000000000
  0.000000000000  0.000000000000 -0.211207009900  0.000000000000
  0.000000000000  0.000000000000  0.077719983640  0.000000000000
  0.000000000000  0.000000000000  0.989821446400  0.000000000000
  0.000000000000  0.000000000000  0.000000000000  1.000000000000
* d-type functions
    4    2
         13.69085000
          3.51315400
          1.04043400
          0.28696200
  0.085894178800  0.000000000000
  0.378467094700  0.000000000000
  0.716123890000  0.000000000000
  0.000000000000  1.000000000000

/V.6-31G.Rassolov.22s16p4d.5s4p2d.
V.A. Rassolov, J.A. Pople, M.A. Ratner, T.L. Windus. J. Chem. Phys. 109 (1998) 1223-1229. doi:10.1063/1.476673
VANADIUM (22s,16p,4d) -> [5s,4p,2d]
Options
Cartesian d
EndOptions
    23.0   2
* s-type functions
   22    5
      47354.33000000
       7110.78700000
       1619.59100000
        456.33790000
        146.06060000
         49.75791000
        968.14840000
        230.28210000
         74.14591000
         27.64107000
         11.11475000
          4.54311300
         37.64050000
         12.28238000
          5.23336600
          2.20895000
          0.91788000
          0.36341200
          1.39278100
          0.54391300
          0.09147600
          0.03431200
  0.001784512997  0.000000000000  0.000000000000  0.000000000000  0.000000000000
  0.013667539980  0.000000000000  0.000000000000  0.000000000000  0.000000000000
  0.067361219890  0.000000000000  0.000000000000  0.000000000000  0.000000000000
  0.233055199600  0.000000000000  0.000000000000  0.000000000000  0.000000000000
  0.480631599200  0.000000000000  0.000000000000  0.000000000000  0.000000000000
  0.347480199400  0.000000000000  0.000000000000  0.000000000000  0.000000000000
  0.000000000000  0.002410599011  0.000000000000  0.000000000000  0.000000000000
  0.000000000000  0.032072430140  0.000000000000  0.000000000000  0.000000000000
  0.000000000000  0.124594200600  0.000000000000  0.000000000000  0.000000000000
  0.000000000000 -0.034821770150  0.000000000000  0.000000000000  0.000000000000
  0.000000000000 -0.616737402700  0.000000000000  0.000000000000  0.000000000000
  0.000000000000 -0.450984402000  0.000000000000  0.000000000000  0.000000000000
  0.000000000000  0.000000000000 -0.003233199384  0.000000000000  0.000000000000
  0.000000000000  0.000000000000  0.071307448470  0.000000000000  0.000000000000
  0.000000000000  0.000000000000  0.254382030200  0.000000000000  0.000000000000
  0.000000000000  0.000000000000 -0.293388734800  0.000000000000  0.000000000000
  0.000000000000  0.000000000000 -0.741569588100  0.000000000000  0.000000000000
  0.000000000000  0.000000000000 -0.190941022700  0.000000000000  0.000000000000
  0.000000000000  0.000000000000  0.000000000000  0.061397021330  0.000000000000
  0.000000000000  0.000000000000  0.000000000000  0.306112956800  0.000000000000
  0.000000000000  0.000000000000  0.000000000000 -1.154889837000  0.000000000000
  0.000000000000  0.000000000000  0.000000000000  0.000000000000  1.000000000000
* p-type functions
   16    4
        968.14840000
        230.28210000
         74.14591000
         27.64107000
         11.11475000
          4.54311300
         37.64050000
         12.28238000
          5.23336600
          2.20895000
          0.91788000
          0.36341200
          1.39278100
          0.54391300
          0.09147600
          0.03431200
  0.003995005174  0.000000000000  0.000000000000  0.000000000000
  0.031040611350  0.000000000000  0.000000000000  0.000000000000
  0.134774705900  0.000000000000  0.000000000000  0.000000000000
  0.343727915000  0.000000000000  0.000000000000  0.000000000000
  0.462875920200  0.000000000000  0.000000000000  0.000000000000
  0.213554709300  0.000000000000  0.000000000000  0.000000000000
  0.000000000000 -0.006494056098  0.000000000000  0.000000000000
  0.000000000000 -0.027534530420  0.000000000000  0.000000000000
  0.000000000000  0.055162840830  0.000000000000  0.000000000000
  0.000000000000  0.387967205900  0.000000000000  0.000000000000
  0.000000000000  0.509025807700  0.000000000000  0.000000000000
  0.000000000000  0.180384002700  0.000000000000  0.000000000000
  0.000000000000  0.000000000000 -0.189126491800  0.000000000000
  0.000000000000  0.000000000000  0.080054526540  0.000000000000
  0.000000000000  0.000000000000  0.987739857400  0.000000000000
  0.000000000000  0.000000000000  0.000000000000  1.000000000000
* d-type functions
    4    2
         16.05025000
          4.16006300
          1.24326500
          0.34427700
  0.085998991660  0.000000000000
  0.380299607400  0.000000000000
  0.712765913800  0.000000000000
  0.000000000000  1.000000000000

/Cr.6-31G.Rassolov.22s16p4d.5s4p2d.
V.A. Rassolov, J.A. Pople, M.A. Ratner, T.L. Windus. J. Chem. Phys. 109 (1998) 1223-1229. doi:10.1063/1.476673
CHROMIUM (22s,16p,4d) -> [5s,4p,2d]
Options
Cartesian d
EndOptions
    24.0   2
* s-type functions
   22    5
      51789.81000000
       7776.84900000
       1771.38500000
        499.15880000
        159.79820000
         54.47021000
       1064.32800000
        253.21380000
         81.60924000
         30.48193000
         12.29439000
          5.03772200
         41.56291000
         13.67627000
          5.84439000
          2.47160900
          1.02830800
          0.40725000
          1.57146400
          0.60558000
          0.09856100
          0.03645900
  0.001776181956  0.000000000000  0.000000000000  0.000000000000  0.000000000000
  0.013604759660  0.000000000000  0.000000000000  0.000000000000  0.000000000000
  0.067069248320  0.000000000000  0.000000000000  0.000000000000  0.000000000000
  0.232310394200  0.000000000000  0.000000000000  0.000000000000  0.000000000000
  0.480240988000  0.000000000000  0.000000000000  0.000000000000  0.000000000000
  0.348765291300  0.000000000000  0.000000000000  0.000000000000  0.000000000000
  0.000000000000  0.002399669027  0.000000000000  0.000000000000  0.000000000000
  0.000000000000  0.031948860350  0.000000000000  0.000000000000  0.000000000000
  0.000000000000  0.125086801400  0.000000000000  0.000000000000  0.000000000000
  0.000000000000 -0.032218660360  0.000000000000  0.000000000000  0.000000000000
  0.000000000000 -0.617228406900  0.000000000000  0.000000000000  0.000000000000
  0.000000000000 -0.452593605000  0.000000000000  0.000000000000  0.000000000000
  0.000000000000  0.000000000000 -0.003454215978  0.000000000000  0.000000000000
  0.000000000000  0.000000000000  0.072184279530  0.000000000000  0.000000000000
  0.000000000000  0.000000000000  0.254481998400  0.000000000000  0.000000000000
  0.000000000000  0.000000000000 -0.293453398100  0.000000000000  0.000000000000
  0.000000000000  0.000000000000 -0.738545495200  0.000000000000  0.000000000000
  0.000000000000  0.000000000000 -0.194715698700  0.000000000000  0.000000000000
  0.000000000000  0.000000000000  0.000000000000  0.058922214600  0.000000000000
  0.000000000000  0.000000000000  0.000000000000  0.297605624200  0.000000000000
  0.000000000000  0.000000000000  0.000000000000 -1.147506479000  0.000000000000
  0.000000000000  0.000000000000  0.000000000000  0.000000000000  1.000000000000
* p-type functions
   16    4
       1064.32800000
        253.21380000
         81.60924000
         30.48193000
         12.29439000
          5.03772200
         41.56291000
         13.67627000
          5.84439000
          2.47160900
          1.02830800
          0.40725000
          1.57146400
          0.60558000
          0.09856100
          0.03645900
  0.003986996969  0.000000000000  0.000000000000  0.000000000000
  0.031046619760  0.000000000000  0.000000000000  0.000000000000
  0.135051798900  0.000000000000  0.000000000000  0.000000000000
  0.344886497300  0.000000000000  0.000000000000  0.000000000000
  0.462857096400  0.000000000000  0.000000000000  0.000000000000
  0.211042598400  0.000000000000  0.000000000000  0.000000000000
  0.000000000000 -0.006722497017  0.000000000000  0.000000000000
  0.000000000000 -0.028064710070  0.000000000000  0.000000000000
  0.000000000000  0.058200280150  0.000000000000  0.000000000000
  0.000000000000  0.391698801000  0.000000000000  0.000000000000
  0.000000000000  0.504782301300  0.000000000000  0.000000000000
  0.000000000000  0.179029000500  0.000000000000  0.000000000000
  0.000000000000  0.000000000000 -0.193010008000  0.000000000000
  0.000000000000  0.000000000000  0.096056203980  0.000000000000
  0.000000000000  0.000000000000  0.981760940700  0.000000000000
  0.000000000000  0.000000000000  0.000000000000  1.000000000000
* d-type functions
    4    2
         18.41930000
          4.81266100
          1.44644700
          0.40041300
  0.086508163350  0.000000000000
  0.382669914800  0.000000000000
  0.709377227400  0.000000000000
  0.000000000000  1.000000000000

/Mn.6-31G.Rassolov.22s16p4d.5s4p2d.
V.A. Rassolov, J.A. Pople, M.A. Ratner, T.L. Windus. J. Chem. Phys. 109 (1998) 1223-1229. doi:10.1063/1.476673
MANGANESE (22s,16p,4d) -> [5s,4p,2d]
Options
Cartesian d
EndOptions
    25.0   2
* s-type functions
   22    5
      56347.14000000
       8460.94300000
       1927.32500000
        543.23430000
        173.99050000
         59.36005000
       1165.41200000
        277.32760000
         89.47278000
         33.48256000
         13.54037000
          5.55797200
         45.83532000
         15.18777000
          6.50071000
          2.75158300
          1.14540400
          0.45368700
          1.75799900
          0.66702200
          0.10512900
          0.03841800
  0.001771579986  0.000000000000  0.000000000000  0.000000000000  0.000000000000
  0.013570809890  0.000000000000  0.000000000000  0.000000000000  0.000000000000
  0.066906049480  0.000000000000  0.000000000000  0.000000000000  0.000000000000
  0.231854098200  0.000000000000  0.000000000000  0.000000000000  0.000000000000
  0.479904596300  0.000000000000  0.000000000000  0.000000000000  0.000000000000
  0.349573697300  0.000000000000  0.000000000000  0.000000000000  0.000000000000
  0.000000000000  0.002388751027  0.000000000000  0.000000000000  0.000000000000
  0.000000000000  0.031817080360  0.000000000000  0.000000000000  0.000000000000
  0.000000000000  0.125467001400  0.000000000000  0.000000000000  0.000000000000
  0.000000000000 -0.029554310330  0.000000000000  0.000000000000  0.000000000000
  0.000000000000 -0.617516007000  0.000000000000  0.000000000000  0.000000000000
  0.000000000000 -0.454445805100  0.000000000000  0.000000000000  0.000000000000
  0.000000000000  0.000000000000 -0.003665856137  0.000000000000  0.000000000000
  0.000000000000  0.000000000000  0.072319712690  0.000000000000  0.000000000000
  0.000000000000  0.000000000000  0.254448609500  0.000000000000  0.000000000000
  0.000000000000  0.000000000000 -0.291038010800  0.000000000000  0.000000000000
  0.000000000000  0.000000000000 -0.735986027400  0.000000000000  0.000000000000
  0.000000000000  0.000000000000 -0.199761707400  0.000000000000  0.000000000000
  0.000000000000  0.000000000000  0.000000000000  0.056285731860  0.000000000000
  0.000000000000  0.000000000000  0.000000000000  0.289749161000  0.000000000000
  0.000000000000  0.000000000000  0.000000000000 -1.140653240000  0.000000000000
  0.000000000000  0.000000000000  0.000000000000  0.000000000000  1.000000000000
* p-type functions
   16    4
       1165.41200000
        277.32760000
         89.47278000
         33.48256000
         13.54037000
          5.55797200
         45.83532000
         15.18777000
          6.50071000
          2.75158300
          1.14540400
          0.45368700
          1.75799900
          0.66702200
          0.10512900
          0.03841800
  0.003977317926  0.000000000000  0.000000000000  0.000000000000
  0.031031119420  0.000000000000  0.000000000000  0.000000000000
  0.135189397500  0.000000000000  0.000000000000  0.000000000000
  0.345738693500  0.000000000000  0.000000000000  0.000000000000
  0.462920491300  0.000000000000  0.000000000000  0.000000000000
  0.209059196100  0.000000000000  0.000000000000  0.000000000000
  0.000000000000 -0.006887577902  0.000000000000  0.000000000000
  0.000000000000 -0.028468159590  0.000000000000  0.000000000000
  0.000000000000  0.060318319140  0.000000000000  0.000000000000
  0.000000000000  0.393896094400  0.000000000000  0.000000000000
  0.000000000000  0.501376892800  0.000000000000  0.000000000000
  0.000000000000  0.179226397400  0.000000000000  0.000000000000
  0.000000000000  0.000000000000 -0.503502382500  0.000000000000
  0.000000000000  0.000000000000  0.234501091900  0.000000000000
  0.000000000000  0.000000000000  0.914125668200  0.000000000000
  0.000000000000  0.000000000000  0.000000000000  1.000000000000
* d-type functions
    4    2
         20.94355000
          5.51048600
          1.66503800
          0.46173300
  0.086727023140  0.000000000000
  0.384188313900  0.000000000000
  0.706907125600  0.000000000000
  0.000000000000  1.000000000000

/Fe.6-31G.Rassolov.22s16p4d.5s4p2d.
V.A. Rassolov, J.A. Pople, M.A. Ratner, T.L. Windus. J. Chem. Phys. 109 (1998) 1223-1229. doi:10.1063/1.476673
IRON (22s,16p,4d) -> [5s,4p,2d]
Options
Cartesian d
EndOptions
    26.0   2
* s-type functions
   22    5
      61132.62000000
       9179.34200000
       2090.85700000
        589.24790000
        188.75430000
         64.44629000
       1259.98000000
        299.87610000
         96.84917000
         36.31020000
         14.72996000
          6.06607500
         50.43485000
         16.83929000
          7.19208600
          3.05342000
          1.27364300
          0.50409100
          1.95031600
          0.73672100
          0.11417700
          0.04114800
  0.001766110976  0.000000000000  0.000000000000  0.000000000000  0.000000000000
  0.013530379820  0.000000000000  0.000000000000  0.000000000000  0.000000000000
  0.066731279100  0.000000000000  0.000000000000  0.000000000000  0.000000000000
  0.231482296900  0.000000000000  0.000000000000  0.000000000000  0.000000000000
  0.479705793500  0.000000000000  0.000000000000  0.000000000000  0.000000000000
  0.350197595300  0.000000000000  0.000000000000  0.000000000000  0.000000000000
  0.000000000000  0.002438014027  0.000000000000  0.000000000000  0.000000000000
  0.000000000000  0.032240480350  0.000000000000  0.000000000000  0.000000000000
  0.000000000000  0.126572401400  0.000000000000  0.000000000000  0.000000000000
  0.000000000000 -0.031399020350  0.000000000000  0.000000000000  0.000000000000
  0.000000000000 -0.620759306800  0.000000000000  0.000000000000  0.000000000000
  0.000000000000 -0.450291405000  0.000000000000  0.000000000000  0.000000000000
  0.000000000000  0.000000000000 -0.003873255984  0.000000000000  0.000000000000
  0.000000000000  0.000000000000  0.071965979710  0.000000000000  0.000000000000
  0.000000000000  0.000000000000  0.255659099000  0.000000000000  0.000000000000
  0.000000000000  0.000000000000 -0.288283698800  0.000000000000  0.000000000000
  0.000000000000  0.000000000000 -0.734282197000  0.000000000000  0.000000000000
  0.000000000000  0.000000000000 -0.204935299200  0.000000000000  0.000000000000
  0.000000000000  0.000000000000  0.000000000000  0.056948690310  0.000000000000
  0.000000000000  0.000000000000  0.000000000000  0.288291501500  0.000000000000
  0.000000000000  0.000000000000  0.000000000000 -1.138159006000  0.000000000000
  0.000000000000  0.000000000000  0.000000000000  0.000000000000  1.000000000000
* p-type functions
   16    4
       1259.98000000
        299.87610000
         96.84917000
         36.31020000
         14.72996000
          6.06607500
         50.43485000
         16.83929000
          7.19208600
          3.05342000
          1.27364300
          0.50409100
          1.95031600
          0.73672100
          0.11417700
          0.04114800
  0.004028018665  0.000000000000  0.000000000000  0.000000000000
  0.031446467390  0.000000000000  0.000000000000  0.000000000000
  0.136831688600  0.000000000000  0.000000000000  0.000000000000
  0.348723571000  0.000000000000  0.000000000000  0.000000000000
  0.461793061600  0.000000000000  0.000000000000  0.000000000000
  0.204305783000  0.000000000000  0.000000000000  0.000000000000
  0.000000000000 -0.007017127880  0.000000000000  0.000000000000
  0.000000000000 -0.028776599510  0.000000000000  0.000000000000
  0.000000000000  0.061813828950  0.000000000000  0.000000000000
  0.000000000000  0.395494593300  0.000000000000  0.000000000000
  0.000000000000  0.498905891500  0.000000000000  0.000000000000
  0.000000000000  0.179125096900  0.000000000000  0.000000000000
  0.000000000000  0.000000000000 -0.459379616300  0.000000000000
  0.000000000000  0.000000000000  0.285213910200  0.000000000000
  0.000000000000  0.000000000000  0.907648532300  0.000000000000
  0.000000000000  0.000000000000  0.000000000000  1.000000000000
* d-type functions
    4    2
         23.14994000
          6.12236800
          1.84660100
          0.50436100
  0.088769354790  0.000000000000
  0.389631921000  0.000000000000
  0.701481637900  0.000000000000
  0.000000000000  1.000000000000

/Co.6-31G.Rassolov.22s16p4d.5s4p2d.
V.A. Rassolov, J.A. Pople, M.A. Ratner, T.L. Windus. J. Chem. Phys. 109 (1998) 1223-1229. doi:10.1063/1.476673
COBALT (22s,16p,4d) -> [5s,4p,2d]
Options
Cartesian d
EndOptions
    27.0   2
* s-type functions
   22    5
      66148.99000000
       9933.07700000
       2262.81600000
        637.91540000
        204.41220000
         69.82538000
       1378.84100000
        328.26940000
        106.09460000
         39.83275000
         16.18622000
          6.66778800
         54.52355000
         18.29783000
          7.86734800
          3.34053400
          1.39375600
          0.55132600
          2.15194700
          0.81106300
          0.12101700
          0.04303700
  0.001759787106  0.000000000000  0.000000000000  0.000000000000  0.000000000000
  0.013481620810  0.000000000000  0.000000000000  0.000000000000  0.000000000000
  0.066493423990  0.000000000000  0.000000000000  0.000000000000  0.000000000000
  0.230793913900  0.000000000000  0.000000000000  0.000000000000  0.000000000000
  0.479291928800  0.000000000000  0.000000000000  0.000000000000  0.000000000000
  0.351409721100  0.000000000000  0.000000000000  0.000000000000  0.000000000000
  0.000000000000  0.002376276103  0.000000000000  0.000000000000  0.000000000000
  0.000000000000  0.031674501370  0.000000000000  0.000000000000  0.000000000000
  0.000000000000  0.126288805400  0.000000000000  0.000000000000  0.000000000000
  0.000000000000 -0.025845521120  0.000000000000  0.000000000000  0.000000000000
  0.000000000000 -0.618349126700  0.000000000000  0.000000000000  0.000000000000
  0.000000000000 -0.456700819700  0.000000000000  0.000000000000  0.000000000000
  0.000000000000  0.000000000000 -0.003993003860  0.000000000000  0.000000000000
  0.000000000000  0.000000000000  0.074096627400  0.000000000000  0.000000000000
  0.000000000000  0.000000000000  0.254199991100  0.000000000000  0.000000000000
  0.000000000000  0.000000000000 -0.292165689800  0.000000000000  0.000000000000
  0.000000000000  0.000000000000 -0.731870274400  0.000000000000  0.000000000000
  0.000000000000  0.000000000000 -0.204078392900  0.000000000000  0.000000000000
  0.000000000000  0.000000000000  0.000000000000  0.053798404560  0.000000000000
  0.000000000000  0.000000000000  0.000000000000  0.275996969500  0.000000000000
  0.000000000000  0.000000000000  0.000000000000 -1.129691466000  0.000000000000
  0.000000000000  0.000000000000  0.000000000000  0.000000000000  1.000000000000
* p-type functions
   16    4
       1378.84100000
        328.26940000
        106.09460000
         39.83275000
         16.18622000
          6.66778800
         54.52355000
         18.29783000
          7.86734800
          3.34053400
          1.39375600
          0.55132600
          2.15194700
          0.81106300
          0.12101700
          0.04303700
  0.003971488140  0.000000000000  0.000000000000  0.000000000000
  0.031081741090  0.000000000000  0.000000000000  0.000000000000
  0.135743904800  0.000000000000  0.000000000000  0.000000000000
  0.347682712200  0.000000000000  0.000000000000  0.000000000000
  0.462634016300  0.000000000000  0.000000000000  0.000000000000
  0.205163207200  0.000000000000  0.000000000000  0.000000000000
  0.000000000000 -0.007290771623  0.000000000000  0.000000000000
  0.000000000000 -0.029260268490  0.000000000000  0.000000000000
  0.000000000000  0.065641496610  0.000000000000  0.000000000000
  0.000000000000  0.400065179300  0.000000000000  0.000000000000
  0.000000000000  0.495023574400  0.000000000000  0.000000000000
  0.000000000000  0.175823990900  0.000000000000  0.000000000000
  0.000000000000  0.000000000000 -0.216549593500  0.000000000000
  0.000000000000  0.000000000000  0.124048796300  0.000000000000
  0.000000000000  0.000000000000  0.972406370800  0.000000000000
  0.000000000000  0.000000000000  0.000000000000  1.000000000000
* d-type functions
    4    2
         25.59306000
          6.80099000
          2.05164700
          0.55567100
  0.090047484030  0.000000000000
  0.393170317600  0.000000000000
  0.697684431200  0.000000000000
  0.000000000000  1.000000000000

/Ni.6-31G.Rassolov.22s16p4d.5s4p2d.
V.A. Rassolov, J.A. Pople, M.A. Ratner, T.L. Windus. J. Chem. Phys. 109 (1998) 1223-1229. doi:10.1063/1.476673
NICKEL (22s,16p,4d) -> [5s,4p,2d]
Options
Cartesian d
EndOptions
    28.0   2
* s-type functions
   22    5
      71396.35000000
      10720.84000000
       2442.12900000
        688.42650000
        220.61530000
         75.39373000
       1492.53200000
        355.40130000
        114.95340000
         43.22043000
         17.59710000
          7.25776500
         59.35261000
         20.02181000
          8.61456100
          3.66053100
          1.52811100
          0.60405700
          2.37927600
          0.88583900
          0.12852900
          0.04519500
  0.001753002902  0.000000000000  0.000000000000  0.000000000000  0.000000000000
  0.013431219250  0.000000000000  0.000000000000  0.000000000000  0.000000000000
  0.066270406310  0.000000000000  0.000000000000  0.000000000000  0.000000000000
  0.230250787200  0.000000000000  0.000000000000  0.000000000000  0.000000000000
  0.479018573300  0.000000000000  0.000000000000  0.000000000000  0.000000000000
  0.352344380400  0.000000000000  0.000000000000  0.000000000000  0.000000000000
  0.000000000000  0.002370713841  0.000000000000  0.000000000000  0.000000000000
  0.000000000000  0.031605657870  0.000000000000  0.000000000000  0.000000000000
  0.000000000000  0.126633491500  0.000000000000  0.000000000000  0.000000000000
  0.000000000000 -0.024170368370  0.000000000000  0.000000000000  0.000000000000
  0.000000000000 -0.618777458400  0.000000000000  0.000000000000  0.000000000000
  0.000000000000 -0.457676969200  0.000000000000  0.000000000000  0.000000000000
  0.000000000000  0.000000000000 -0.004162002046  0.000000000000  0.000000000000
  0.000000000000  0.000000000000  0.074251110820  0.000000000000  0.000000000000
  0.000000000000  0.000000000000  0.254136002800  0.000000000000  0.000000000000
  0.000000000000  0.000000000000 -0.290347703200  0.000000000000  0.000000000000
  0.000000000000  0.000000000000 -0.730212108000  0.000000000000  0.000000000000
  0.000000000000  0.000000000000 -0.207605702300  0.000000000000  0.000000000000
  0.000000000000  0.000000000000  0.000000000000  0.051578905400  0.000000000000
  0.000000000000  0.000000000000  0.000000000000  0.270761233300  0.000000000000
  0.000000000000  0.000000000000  0.000000000000 -1.124770554000  0.000000000000
  0.000000000000  0.000000000000  0.000000000000  0.000000000000  1.000000000000
* p-type functions
   16    4
       1492.53200000
        355.40130000
        114.95340000
         43.22043000
         17.59710000
          7.25776500
         59.35261000
         20.02181000
          8.61456100
          3.66053100
          1.52811100
          0.60405700
          2.37927600
          0.88583900
          0.12852900
          0.04519500
  0.003967554145  0.000000000000  0.000000000000  0.000000000000
  0.031094791140  0.000000000000  0.000000000000  0.000000000000
  0.135951705000  0.000000000000  0.000000000000  0.000000000000
  0.348513612700  0.000000000000  0.000000000000  0.000000000000
  0.462549816900  0.000000000000  0.000000000000  0.000000000000
  0.203518607400  0.000000000000  0.000000000000  0.000000000000
  0.000000000000 -0.007421451709  0.000000000000  0.000000000000
  0.000000000000 -0.029534098840  0.000000000000  0.000000000000
  0.000000000000  0.067318517360  0.000000000000  0.000000000000
  0.000000000000  0.401665984200  0.000000000000  0.000000000000
  0.000000000000  0.492662280700  0.000000000000  0.000000000000
  0.000000000000  0.175689293100  0.000000000000  0.000000000000
  0.000000000000  0.000000000000 -0.188766303600  0.000000000000
  0.000000000000  0.000000000000  0.101519901900  0.000000000000
  0.000000000000  0.000000000000  0.979090618500  0.000000000000
  0.000000000000  0.000000000000  0.000000000000  1.000000000000
* d-type functions
    4    2
         28.19147000
          7.52358400
          2.27122800
          0.61160300
  0.090988805040  0.000000000000
  0.395820778400  0.000000000000
  0.694715362100  0.000000000000
  0.000000000000  1.000000000000

/Cu.6-31G.Rassolov.22s16p4d.5s4p2d.
V.A. Rassolov, J.A. Pople, M.A. Ratner, T.L. Windus. J. Chem. Phys. 109 (1998) 1223-1229. doi:10.1063/1.476673
COPPER (22s,16p,4d) -> [5s,4p,2d]
Options
Cartesian d
EndOptions
    29.0   2
* s-type functions
   22    5
      76794.38000000
      11530.70000000
       2626.57500000
        740.49030000
        237.35280000
         81.15818000
       1610.81400000
        383.63670000
        124.17330000
         46.74678000
         19.06569000
          7.87156700
         64.45732000
         21.85212000
          9.40534300
          3.99916800
          1.67029700
          0.65962700
          2.60008800
          0.96309400
          0.13616100
          0.04733200
  0.001748161083  0.000000000000  0.000000000000  0.000000000000  0.000000000000
  0.013396020640  0.000000000000  0.000000000000  0.000000000000  0.000000000000
  0.066108853150  0.000000000000  0.000000000000  0.000000000000  0.000000000000
  0.229826511000  0.000000000000  0.000000000000  0.000000000000  0.000000000000
  0.478767522800  0.000000000000  0.000000000000  0.000000000000  0.000000000000
  0.353073916800  0.000000000000  0.000000000000  0.000000000000  0.000000000000
  0.000000000000  0.002364054998  0.000000000000  0.000000000000  0.000000000000
  0.000000000000  0.031536349970  0.000000000000  0.000000000000  0.000000000000
  0.000000000000  0.126945199900  0.000000000000  0.000000000000  0.000000000000
  0.000000000000 -0.022628399980  0.000000000000  0.000000000000  0.000000000000
  0.000000000000 -0.619207999400  0.000000000000  0.000000000000  0.000000000000
  0.000000000000 -0.458539299600  0.000000000000  0.000000000000  0.000000000000
  0.000000000000  0.000000000000 -0.004331075387  0.000000000000  0.000000000000
  0.000000000000  0.000000000000  0.074123076620  0.000000000000  0.000000000000
  0.000000000000  0.000000000000  0.254210822700  0.000000000000  0.000000000000
  0.000000000000  0.000000000000 -0.287484325700  0.000000000000  0.000000000000
  0.000000000000  0.000000000000 -0.729143665100  0.000000000000  0.000000000000
  0.000000000000  0.000000000000 -0.211395118900  0.000000000000  0.000000000000
  0.000000000000  0.000000000000  0.000000000000  0.050275770030  0.000000000000
  0.000000000000  0.000000000000  0.000000000000  0.265004000200  0.000000000000
  0.000000000000  0.000000000000  0.000000000000 -1.120155001000  0.000000000000
  0.000000000000  0.000000000000  0.000000000000  0.000000000000  1.000000000000
* p-type functions
   16    4
       1610.81400000
        383.63670000
        124.17330000
         46.74678000
         19.06569000
          7.87156700
         64.45732000
         21.85212000
          9.40534300
          3.99916800
          1.67029700
          0.65962700
          2.60008800
          0.96309400
          0.13616100
          0.04733200
  0.003963306847  0.000000000000  0.000000000000  0.000000000000
  0.031102228800  0.000000000000  0.000000000000  0.000000000000
  0.136134994800  0.000000000000  0.000000000000  0.000000000000
  0.349291386600  0.000000000000  0.000000000000  0.000000000000
  0.462477982200  0.000000000000  0.000000000000  0.000000000000
  0.202010192200  0.000000000000  0.000000000000  0.000000000000
  0.000000000000 -0.007523724515  0.000000000000  0.000000000000
  0.000000000000 -0.029756868080  0.000000000000  0.000000000000
  0.000000000000  0.068496535590  0.000000000000  0.000000000000
  0.000000000000  0.402714074100  0.000000000000  0.000000000000
  0.000000000000  0.490848968400  0.000000000000  0.000000000000
  0.000000000000  0.175926788700  0.000000000000  0.000000000000
  0.000000000000  0.000000000000 -0.170291095000  0.000000000000
  0.000000000000  0.000000000000  0.093101327280  0.000000000000
  0.000000000000  0.000000000000  0.981433571400  0.000000000000
  0.000000000000  0.000000000000  0.000000000000  1.000000000000
* d-type functions
    4    2
         30.85341000
          8.26498500
          2.49533200
          0.66765800
  0.091999053850  0.000000000000
  0.398502116700  0.000000000000
  0.691789728900  0.000000000000
  0.000000000000  1.000000000000

/Zn.6-31G.Rassolov.22s16p4d.5s4p2d.
V.A. Rassolov, J.A. Pople, M.A. Ratner, T.L. Windus. J. Chem. Phys. 109 (1998) 1223-1229. doi:10.1063/1.476673
ZINC (22s,16p,4d) -> [5s,4p,2d]
Options
Cartesian d
EndOptions
    30.0   2
* s-type functions
   22    5
      82400.94000000
      12372.55000000
       2818.35100000
        794.57170000
        254.72320000
         87.13880000
       1732.56900000
        412.71490000
        133.67800000
         50.38585000
         20.58358000
          8.50594000
         69.36492000
         23.62082000
         10.18471000
          4.33408200
          1.81091800
          0.71484100
          2.82384200
          1.03954300
          0.14326400
          0.04929600
  0.001743328988  0.000000000000  0.000000000000  0.000000000000  0.000000000000
  0.013359659910  0.000000000000  0.000000000000  0.000000000000  0.000000000000
  0.065943649560  0.000000000000  0.000000000000  0.000000000000  0.000000000000
  0.229415098500  0.000000000000  0.000000000000  0.000000000000  0.000000000000
  0.478545296800  0.000000000000  0.000000000000  0.000000000000  0.000000000000
  0.353775297700  0.000000000000  0.000000000000  0.000000000000  0.000000000000
  0.000000000000  0.002361459089  0.000000000000  0.000000000000  0.000000000000
  0.000000000000  0.031501771190  0.000000000000  0.000000000000  0.000000000000
  0.000000000000  0.127277404800  0.000000000000  0.000000000000  0.000000000000
  0.000000000000 -0.021459280810  0.000000000000  0.000000000000  0.000000000000
  0.000000000000 -0.619765223500  0.000000000000  0.000000000000  0.000000000000
  0.000000000000 -0.459018017400  0.000000000000  0.000000000000  0.000000000000
  0.000000000000  0.000000000000 -0.004440098182  0.000000000000  0.000000000000
  0.000000000000  0.000000000000  0.075052533080  0.000000000000  0.000000000000
  0.000000000000  0.000000000000  0.253311110400  0.000000000000  0.000000000000
  0.000000000000  0.000000000000 -0.288189711800  0.000000000000  0.000000000000
  0.000000000000  0.000000000000 -0.726705229800  0.000000000000  0.000000000000
  0.000000000000  0.000000000000 -0.213343908800  0.000000000000  0.000000000000
  0.000000000000  0.000000000000  0.000000000000  0.048985450310  0.000000000000
  0.000000000000  0.000000000000  0.000000000000  0.259279407500  0.000000000000
  0.000000000000  0.000000000000  0.000000000000 -1.115711463000  0.000000000000
  0.000000000000  0.000000000000  0.000000000000  0.000000000000  1.000000000000
* p-type functions
   16    4
       1732.56900000
        412.71490000
        133.67800000
         50.38585000
         20.58358000
          8.50594000
         69.36492000
         23.62082000
         10.18471000
          4.33408200
          1.81091800
          0.71484100
          2.82384200
          1.03954300
          0.14326400
          0.04929600
  0.003963125053  0.000000000000  0.000000000000  0.000000000000
  0.031134110420  0.000000000000  0.000000000000  0.000000000000
  0.136393101800  0.000000000000  0.000000000000  0.000000000000
  0.350126604700  0.000000000000  0.000000000000  0.000000000000
  0.462317906200  0.000000000000  0.000000000000  0.000000000000
  0.200499502700  0.000000000000  0.000000000000  0.000000000000
  0.000000000000 -0.007689261805  0.000000000000  0.000000000000
  0.000000000000 -0.029979819240  0.000000000000  0.000000000000
  0.000000000000  0.070824108210  0.000000000000  0.000000000000
  0.000000000000  0.404614089700  0.000000000000  0.000000000000
  0.000000000000  0.488232487600  0.000000000000  0.000000000000
  0.000000000000  0.175196995600  0.000000000000  0.000000000000
  0.000000000000  0.000000000000 -0.158676298100  0.000000000000
  0.000000000000  0.000000000000  0.083793268980  0.000000000000
  0.000000000000  0.000000000000  0.984054688100  0.000000000000
  0.000000000000  0.000000000000  0.000000000000  1.000000000000
* d-type functions
    4    2
         33.70764000
          9.06110600
          2.73838300
          0.73029400
  0.092626478150  0.000000000000
  0.400297992000  0.000000000000
  0.689660786300  0.000000000000
  0.000000000000  1.000000000000

/Ga.6-31G.Rassolov.22s16p4d.5s4p2d.
V.A. Rassolov, M.A. Ratner, J.A. Pople, P.C. Redfern, L.A. Curtiss. J. Comput. Chem. 22 (2001) 976-984. doi:10.1002/jcc.1058.abs
GALLIUM (22s,16p,4d) -> [5s,4p,2d]
Options
Cartesian d
EndOptions
    31.0   2
* s-type functions
   22    5
      88284.61000000
[...]
  0.065573190000  0.000000000000  0.000000000000  0.000000000000  0.000000000000
  0.228371200000  0.000000000000  0.000000000000  0.000000000000  0.000000000000
  0.477810400000  0.000000000000  0.000000000000  0.000000000000  0.000000000000
  0.355713500000  0.000000000000  0.000000000000  0.000000000000  0.000000000000
  0.000000000000  0.002299186000  0.000000000000  0.000000000000  0.000000000000
  0.000000000000  0.030688230000  0.000000000000  0.000000000000  0.000000000000
  0.000000000000  0.126290600000  0.000000000000  0.000000000000  0.000000000000
  0.000000000000 -0.011054050000  0.000000000000  0.000000000000  0.000000000000
  0.000000000000 -0.610365900000  0.000000000000  0.000000000000  0.000000000000
  0.000000000000 -0.475538700000  0.000000000000  0.000000000000  0.000000000000
  0.000000000000  0.000000000000 -0.005330845000  0.000000000000  0.000000000000
  0.000000000000  0.000000000000  0.058744950000  0.000000000000  0.000000000000
  0.000000000000  0.000000000000  0.259834900000  0.000000000000  0.000000000000
  0.000000000000  0.000000000000 -0.192691700000  0.000000000000  0.000000000000
  0.000000000000  0.000000000000 -0.719057000000  0.000000000000  0.000000000000
  0.000000000000  0.000000000000 -0.299518100000  0.000000000000  0.000000000000
  0.000000000000  0.000000000000  0.000000000000  0.233881500000  0.000000000000
  0.000000000000  0.000000000000  0.000000000000 -0.218961700000  0.000000000000
  0.000000000000  0.000000000000  0.000000000000 -0.924200600000  0.000000000000
  0.000000000000  0.000000000000  0.000000000000  0.000000000000  1.000000000000
* p-type functions
   16    4
       2016.62900000
        480.65990000
        156.06160000
         59.07914000
         24.22346000
         10.04418000
         87.28112000
         30.28230000
         12.85367000
          5.58743700
          2.43846100
          1.04032400
          1.34496000
          0.44366200
          0.17608200
          0.06466500
  0.003872605000  0.000000000000  0.000000000000  0.000000000000
  0.030512180000  0.000000000000  0.000000000000  0.000000000000
  0.133897100000  0.000000000000  0.000000000000  0.000000000000
  0.346249600000  0.000000000000  0.000000000000  0.000000000000
  0.463574100000  0.000000000000  0.000000000000  0.000000000000
  0.204787900000  0.000000000000  0.000000000000  0.000000000000
  0.000000000000 -0.006893957000  0.000000000000  0.000000000000
  0.000000000000 -0.029542520000  0.000000000000  0.000000000000
  0.000000000000  0.050422910000  0.000000000000  0.000000000000
  0.000000000000  0.369936600000  0.000000000000  0.000000000000
  0.000000000000  0.493314700000  0.000000000000  0.000000000000
  0.000000000000  0.211644500000  0.000000000000  0.000000000000
  0.000000000000  0.000000000000 -0.019768040000  0.000000000000
  0.000000000000  0.000000000000  0.302890600000  0.000000000000
  0.000000000000  0.000000000000  0.756282800000  0.000000000000
  0.000000000000  0.000000000000  0.000000000000  1.000000000000
* d-type functions
    4    2
         44.63105000
         12.20184000
          3.82342300
          1.10883100
  0.084310360000  0.000000000000
  0.384772600000  0.000000000000
  0.700332300000  0.000000000000
  0.000000000000  1.000000000000

/As.6-31G.Rassolov.22s16p4d.5s4p2d.
V.A. Rassolov, M.A. Ratner, J.A. Pople, P.C. Redfern, L.A. Curtiss. J. Comput. Chem. 22 (2001) 976-984. doi:10.1002/jcc.1058.abs
ARSENIC (22s,16p,4d) -> [5s,4p,2d]
Options
Cartesian d
EndOptions
    33.0   2
* s-type functions
   22    5
     100595.50000000
      15104.82000000
       3440.88400000
        970.39610000
        311.28520000
        106.62840000
       2166.67900000
        516.54140000
        167.86740000
         63.64638000
         26.13673000
         10.85439000
         95.06989000
         33.18087000
         14.06773000
          6.15328800
          2.72171200
          1.18533400
          1.61531500
          0.55133000
          0.22276200
          0.08292300
  0.001726750000  0.000000000000  0.000000000000  0.000000000000  0.000000000000
  0.013234620000  0.000000000000  0.000000000000  0.000000000000  0.000000000000
  0.065358480000  0.000000000000  0.000000000000  0.000000000000  0.000000000000
  0.227804200000  0.000000000000  0.000000000000  0.000000000000  0.000000000000
  0.477452500000  0.000000000000  0.000000000000  0.000000000000  0.000000000000
  0.356761900000  0.000000000000  0.000000000000  0.000000000000  0.000000000000
  0.000000000000  0.002271761000  0.000000000000  0.000000000000  0.000000000000
  0.000000000000  0.030334750000  0.000000000000  0.000000000000  0.000000000000
  0.000000000000  0.125905700000  0.000000000000  0.000000000000  0.000000000000
  0.000000000000 -0.006687172000  0.000000000000  0.000000000000  0.000000000000
  0.000000000000 -0.606530600000  0.000000000000  0.000000000000  0.000000000000
  0.000000000000 -0.482314400000  0.000000000000  0.000000000000  0.000000000000
  0.000000000000  0.000000000000 -0.005587423000  0.000000000000  0.000000000000
  0.000000000000  0.000000000000  0.056325060000  0.000000000000  0.000000000000
  0.000000000000  0.000000000000  0.262583500000  0.000000000000  0.000000000000
  0.000000000000  0.000000000000 -0.171834900000  0.000000000000  0.000000000000
  0.000000000000  0.000000000000 -0.717564500000  0.000000000000  0.000000000000
  0.000000000000  0.000000000000 -0.318459800000  0.000000000000  0.000000000000
  0.000000000000  0.000000000000  0.000000000000  0.264537200000  0.000000000000
  0.000000000000  0.000000000000  0.000000000000 -0.195273700000  0.000000000000
  0.000000000000  0.000000000000  0.000000000000 -0.959540000000  0.000000000000
  0.000000000000  0.000000000000  0.000000000000  0.000000000000  1.000000000000
* p-type functions
   16    4
       2166.67900000
        516.54140000
        167.86740000
         63.64638000
         26.13673000
         10.85439000
         95.06989000
         33.18087000
         14.06773000
          6.15328800
          2.72171200
          1.18533400
          1.61531500
          0.55133000
          0.22276200
          0.08292300
  0.003832156000  0.000000000000  0.000000000000  0.000000000000
  0.030235580000  0.000000000000  0.000000000000  0.000000000000
  0.132863200000  0.000000000000  0.000000000000  0.000000000000
  0.344764800000  0.000000000000  0.000000000000  0.000000000000
  0.464036800000  0.000000000000  0.000000000000  0.000000000000
  0.206482400000  0.000000000000  0.000000000000  0.000000000000
  0.000000000000 -0.006816583000  0.000000000000  0.000000000000
  0.000000000000 -0.029703030000  0.000000000000  0.000000000000
  0.000000000000  0.047043350000  0.000000000000  0.000000000000
  0.000000000000  0.364504200000  0.000000000000  0.000000000000
  0.000000000000  0.494515700000  0.000000000000  0.000000000000
  0.000000000000  0.214983000000  0.000000000000  0.000000000000
  0.000000000000  0.000000000000 -0.025740610000  0.000000000000
  0.000000000000  0.000000000000  0.307276400000  0.000000000000
  0.000000000000  0.000000000000  0.753736800000  0.000000000000
  0.000000000000  0.000000000000  0.000000000000  1.000000000000
* d-type functions
    4    2
         50.30227000
         13.84166000
          4.39345800
          1.31075500
  0.081447110000  0.000000000000
  0.379290800000  0.000000000000
  0.704040100000  0.000000000000
  0.000000000000  1.000000000000

/Se.6-31G.Rassolov.22s16p4d.5s4p2d.
V.A. Rassolov, M.A. Ratner, J.A. Pople, P.C. Redfern, L.A. Curtiss. J. Comput. Chem. 22 (2001) 976-984. doi:10.1002/jcc.1058.abs
SELENIUM (22s,16p,4d) -> [5s,4p,2d]
Options
Cartesian d
EndOptions
    34.0   2
* s-type functions
   22    5
     107027.30000000
      16070.76000000
       3661.22600000
       1032.67300000
        331.33390000
        113.54700000
       2313.54000000
        551.68490000
        179.44010000
         68.13044000
         28.03062000
         11.66572000
        101.57540000
         35.61545000
         15.13135000
          6.64692300
          2.97280500
          1.31670700
          1.84699100
          0.64715900
          0.25798700
          0.09410700
  0.001722646000  0.000000000000  0.000000000000  0.000000000000  0.000000000000
  0.013203240000  0.000000000000  0.000000000000  0.000000000000  0.000000000000
  0.065204940000  0.000000000000  0.000000000000  0.000000000000  0.000000000000
  0.227378700000  0.000000000000  0.000000000000  0.000000000000  0.000000000000
  0.477145100000  0.000000000000  0.000000000000  0.000000000000  0.000000000000
  0.357555300000  0.000000000000  0.000000000000  0.000000000000  0.000000000000
  0.000000000000  0.002261924000  0.000000000000  0.000000000000  0.000000000000
  0.000000000000  0.030194930000  0.000000000000  0.000000000000  0.000000000000
  0.000000000000  0.125882800000  0.000000000000  0.000000000000  0.000000000000
  0.000000000000 -0.004373809000  0.000000000000  0.000000000000  0.000000000000
  0.000000000000 -0.604327700000  0.000000000000  0.000000000000  0.000000000000
  0.000000000000 -0.486120000000  0.000000000000  0.000000000000  0.000000000000
  0.000000000000  0.000000000000 -0.005752618000  0.000000000000  0.000000000000
  0.000000000000  0.000000000000  0.056756080000  0.000000000000  0.000000000000
  0.000000000000  0.000000000000  0.265124300000  0.000000000000  0.000000000000
  0.000000000000  0.000000000000 -0.167058200000  0.000000000000  0.000000000000
  0.000000000000  0.000000000000 -0.718873700000  0.000000000000  0.000000000000
  0.000000000000  0.000000000000 -0.322190700000  0.000000000000  0.000000000000
  0.000000000000  0.000000000000  0.000000000000  0.282315600000  0.000000000000
  0.000000000000  0.000000000000  0.000000000000 -0.212961600000  0.000000000000
  0.000000000000  0.000000000000  0.000000000000 -0.954538400000  0.000000000000
  0.000000000000  0.000000000000  0.000000000000  0.000000000000  1.000000000000
* p-type functions
   16    4
       2313.54000000
        551.68490000
        179.44010000
         68.13044000
         28.03062000
         11.66572000
        101.57540000
         35.61545000
         15.13135000
          6.64692300
          2.97280500
          1.31670700
          1.84699100
          0.64715900
          0.25798700
          0.09410700
  0.003818409000  0.000000000000  0.000000000000  0.000000000000
  0.030151450000  0.000000000000  0.000000000000  0.000000000000
  0.132561400000  0.000000000000  0.000000000000  0.000000000000
  0.344341900000  0.000000000000  0.000000000000  0.000000000000
  0.463923700000  0.000000000000  0.000000000000  0.000000000000
  0.206819800000  0.000000000000  0.000000000000  0.000000000000
  0.000000000000 -0.006942389000  0.000000000000  0.000000000000
  0.000000000000 -0.030144410000  0.000000000000  0.000000000000
  0.000000000000  0.047764110000  0.000000000000  0.000000000000
  0.000000000000  0.366382700000  0.000000000000  0.000000000000
  0.000000000000  0.494008600000  0.000000000000  0.000000000000
  0.000000000000  0.210010900000  0.000000000000  0.000000000000
  0.000000000000  0.000000000000 -0.026539200000  0.000000000000
  0.000000000000  0.000000000000  0.335729100000  0.000000000000
  0.000000000000  0.000000000000  0.730181500000  0.000000000000
  0.000000000000  0.000000000000  0.000000000000  1.000000000000
* d-type functions
    4    2
         56.18544000
         15.54808000
          4.98939400
          1.52384400
  0.079049630000  0.000000000000
  0.374644900000  0.000000000000
  0.707164500000  0.000000000000
  0.000000000000  1.000000000000

/Br.6-31G.Rassolov.22s16p4d.5s4p2d.
V.A. Rassolov, M.A. Ratner, J.A. Pople, P.C. Redfern, L.A. Curtiss. J. Comput. Chem. 22 (2001) 976-984. doi:10.1002/jcc.1058.abs
BROMINE (22s,16p,4d) -> [5s,4p,2d]
Options
Cartesian d
EndOptions
    35.0   2
* s-type functions
   22    5
     113718.20000000
      17074.44000000
       3889.57600000
       1097.09600000
        352.06240000
        120.70020000
       2471.13800000
        589.38380000
        191.87380000
         72.95339000
         30.05839000
         12.52927000
        109.64110000
         38.58948000
         16.37818000
          7.22183600
          3.26369700
          1.46549900
          2.10365100
          0.75470500
          0.30051400
          0.10907100
  0.001717696000  0.000000000000  0.000000000000  0.000000000000  0.000000000000
  0.013167440000  0.000000000000  0.000000000000  0.000000000000  0.000000000000
  0.065045530000  0.000000000000  0.000000000000  0.000000000000  0.000000000000
  0.226950500000  0.000000000000  0.000000000000  0.000000000000  0.000000000000
  0.476835700000  0.000000000000  0.000000000000  0.000000000000  0.000000000000
  0.358367700000  0.000000000000  0.000000000000  0.000000000000  0.000000000000
  0.000000000000  0.002243687000  0.000000000000  0.000000000000  0.000000000000
  0.000000000000  0.029948530000  0.000000000000  0.000000000000  0.000000000000
  0.000000000000  0.125600900000  0.000000000000  0.000000000000  0.000000000000
  0.000000000000 -0.000983278600  0.000000000000  0.000000000000  0.000000000000
  0.000000000000 -0.601314100000  0.000000000000  0.000000000000  0.000000000000
  0.000000000000 -0.491398300000  0.000000000000  0.000000000000  0.000000000000
  0.000000000000  0.000000000000 -0.005975683000  0.000000000000  0.000000000000
  0.000000000000  0.000000000000  0.055421220000  0.000000000000  0.000000000000
  0.000000000000  0.000000000000  0.268120000000  0.000000000000  0.000000000000
  0.000000000000  0.000000000000 -0.154360600000  0.000000000000  0.000000000000
  0.000000000000  0.000000000000 -0.720630600000  0.000000000000  0.000000000000
  0.000000000000  0.000000000000 -0.331643700000  0.000000000000  0.000000000000
  0.000000000000  0.000000000000  0.000000000000  0.302902900000  0.000000000000
  0.000000000000  0.000000000000  0.000000000000 -0.215265900000  0.000000000000
  0.000000000000  0.000000000000  0.000000000000 -0.963394100000  0.000000000000
  0.000000000000  0.000000000000  0.000000000000  0.000000000000  1.000000000000
* p-type functions
   16    4
       2471.13800000
        589.38380000
        191.87380000
         72.95339000
         30.05839000
         12.52927000
        109.64110000
         38.58948000
         16.37818000
          7.22183600
          3.26369700
          1.46549900
          2.10365100
          0.75470500
          0.30051400
          0.10907100
  0.003790182000  0.000000000000  0.000000000000  0.000000000000
  0.029959790000  0.000000000000  0.000000000000  0.000000000000
  0.131822800000  0.000000000000  0.000000000000  0.000000000000
  0.343270800000  0.000000000000  0.000000000000  0.000000000000
  0.464234500000  0.000000000000  0.000000000000  0.000000000000
  0.207938700000  0.000000000000  0.000000000000  0.000000000000
  0.000000000000 -0.006907483000  0.000000000000  0.000000000000
  0.000000000000 -0.030414320000  0.000000000000  0.000000000000
  0.000000000000  0.046027250000  0.000000000000  0.000000000000
  0.000000000000  0.365068900000  0.000000000000  0.000000000000
  0.000000000000  0.494923200000  0.000000000000  0.000000000000
  0.000000000000  0.209039400000  0.000000000000  0.000000000000
  0.000000000000  0.000000000000 -0.028267140000  0.000000000000
  0.000000000000  0.000000000000  0.350306500000  0.000000000000
  0.000000000000  0.000000000000  0.718244600000  0.000000000000
  0.000000000000  0.000000000000  0.000000000000  1.000000000000
* d-type functions
    4    2
         62.25514000
         17.31284000
          5.60791500
          1.74648600
  0.077042290000  0.000000000000
  0.370738400000  0.000000000000
  0.709762800000  0.000000000000
  0.000000000000  1.000000000000

/Kr.6-31G.Rassolov.22s16p4d.5s4p2d.
V.A. Rassolov, M.A. Ratner, J.A. Pople, P.C. Redfern, L.A. Curtiss. J. Comput. Chem. 22 (2001) 976-984. doi:10.1002/jcc.1058.abs
KRYPTON (22s,16p,4d) -> [5s,4p,2d]
Options
Cartesian d
EndOptions
    36.0   2
* s-type functions
   22    5
     120552.40000000
      18102.25000000
       4124.12600000
       1163.47200000
        373.46120000
        128.08970000
       2634.68100000
        628.45330000
        204.70810000
         77.90827000
         32.13816000
         13.41845000
        117.51070000
         41.52553000
         17.65290000
          7.81831300
          3.57177500
          1.62375000
          2.37456000
          0.86919300
          0.34747300
          0.12647900
  0.001714050000  0.000000000000  0.000000000000  0.000000000000  0.000000000000
  0.013138050000  0.000000000000  0.000000000000  0.000000000000  0.000000000000
  0.064900060000  0.000000000000  0.000000000000  0.000000000000  0.000000000000
  0.226518500000  0.000000000000  0.000000000000  0.000000000000  0.000000000000
  0.476496100000  0.000000000000  0.000000000000  0.000000000000  0.000000000000
  0.359195200000  0.000000000000  0.000000000000  0.000000000000  0.000000000000
  0.000000000000  0.002225111000  0.000000000000  0.000000000000  0.000000000000
  0.000000000000  0.029711220000  0.000000000000  0.000000000000  0.000000000000
  0.000000000000  0.125392600000  0.000000000000  0.000000000000  0.000000000000
  0.000000000000  0.001947058000  0.000000000000  0.000000000000  0.000000000000
  0.000000000000 -0.598738800000  0.000000000000  0.000000000000  0.000000000000
  0.000000000000 -0.495897200000  0.000000000000  0.000000000000  0.000000000000
  0.000000000000  0.000000000000 -0.006157662000  0.000000000000  0.000000000000
  0.000000000000  0.000000000000  0.054648410000  0.000000000000  0.000000000000
  0.000000000000  0.000000000000  0.270699400000  0.000000000000  0.000000000000
  0.000000000000  0.000000000000 -0.142613600000  0.000000000000  0.000000000000
  0.000000000000  0.000000000000 -0.721678100000  0.000000000000  0.000000000000
  0.000000000000  0.000000000000 -0.341200800000  0.000000000000  0.000000000000
  0.000000000000  0.000000000000  0.000000000000  0.325118400000  0.000000000000
  0.000000000000  0.000000000000  0.000000000000 -0.214153300000  0.000000000000
  0.000000000000  0.000000000000  0.000000000000 -0.975508300000  0.000000000000
  0.000000000000  0.000000000000  0.000000000000  0.000000000000  1.000000000000
* p-type functions
   16    4
       2634.68100000
        628.45330000
        204.70810000
         77.90827000
         32.13816000
         13.41845000
        117.51070000
         41.52553000
         17.65290000
          7.81831300
          3.57177500
          1.62375000
          2.37456000
          0.86919300
          0.34747300
          0.12647900
  0.003761911000  0.000000000000  0.000000000000  0.000000000000
  0.029775310000  0.000000000000  0.000000000000  0.000000000000
  0.131187800000  0.000000000000  0.000000000000  0.000000000000
  0.342501900000  0.000000000000  0.000000000000  0.000000000000
  0.464493800000  0.000000000000  0.000000000000  0.000000000000
  0.208728400000  0.000000000000  0.000000000000  0.000000000000
  0.000000000000 -0.006922855000  0.000000000000  0.000000000000
  0.000000000000 -0.030692390000  0.000000000000  0.000000000000
  0.000000000000  0.044802600000  0.000000000000  0.000000000000
  0.000000000000  0.363677500000  0.000000000000  0.000000000000
  0.000000000000  0.495241200000  0.000000000000  0.000000000000
  0.000000000000  0.208634000000  0.000000000000  0.000000000000
  0.000000000000  0.000000000000 -0.030095540000  0.000000000000
  0.000000000000  0.000000000000  0.359889300000  0.000000000000
  0.000000000000  0.000000000000  0.710309800000  0.000000000000
  0.000000000000  0.000000000000  0.000000000000  1.000000000000
* d-type functions
    4    2
         68.53888000
         19.14333000
          6.25121300
          1.97923600
  0.075307050000  0.000000000000
  0.367355100000  0.000000000000
  0.712014600000  0.000000000000
  0.000000000000  1.000000000000
