************************************************************************
* This file is part of OpenMolcas.                                     *
*                                                                      *
* OpenMolcas is free software; you can redistribute it and/or modify   *
* it under the terms of the GNU Lesser General Public License, v. 2.1. *
* OpenMolcas is distributed in the hope that it will be useful, but it *
* is provided "as is" and without any express or implied warranties.   *
* For more details see the full text of the license in the file        *
* LICENSE or in <http://www.gnu.org/licenses/>.                        *
************************************************************************
/H.6-31G..4s.2s.
W.J. Hehre, R. Ditchfield and J.A. Pople, J. Chem. Phys. 56, 2257 (1972).
HYDROGEN     (4s) -> [2s]
          1.   0
* S-type functions
    4    2
      18.73113700
       2.82539370
       0.64012170
       0.16127780
  0.03349460  0.00000000
  0.23472695  0.00000000
  0.81375733  0.00000000
  0.00000000  1.00000000
/He.6-31G..4s.2s.
W.J. Hehre, R. Ditchfield and J.A. Pople, J. Chem. Phys. 56, 2257 (1972).
HELIUM       (4s) -> [2s]
          2.   0
* S-type functions
    4    2
      38.42163400
       5.77803000
       1.24177400
       0.29796400
  0.02376600  0.00000000
  0.15467900  0.00000000
  0.46963000  0.00000000
  0.00000000  1.00000000
/Li.6-31G..10s4p.3s2p.
W.J. Hehre, R. Ditchfield and J.A. Pople, J. Chem. Phys. 56, 2257 (1972).
LITHIUM      (10s,4p) -> [3s,2p]
          3.   1
* S-type functions
   10    3
     642.41892000
      96.79851500
      22.09112100
       6.20107030
       1.93511770
       0.63673580
       2.32491840
       0.63243060
       0.07905340
       0.03596200
  0.00214260  0.00000000  0.00000000
  0.01620890  0.00000000  0.00000000
  0.07731560  0.00000000  0.00000000
  0.24578600  0.00000000  0.00000000
  0.47018900  0.00000000  0.00000000
  0.34547080  0.00000000  0.00000000
  0.00000000 -0.03509170  0.00000000
  0.00000000 -0.19123280  0.00000000
  0.00000000  1.08398780  0.00000000
  0.00000000  0.00000000  1.00000000
* P-type functions
    4    2
       2.32491840
       0.63243060
       0.07905340
       0.03596200
  0.00894150  0.00000000
  0.14100950  0.00000000
  0.94536370  0.00000000
  0.00000000  1.00000000
/Be.6-31G..10s4p.3s2p.
W.J. Hehre, R. Ditchfield and J.A. Pople, J. Chem. Phys. 56, 2257 (1972).
BERYLLIUM    (10s,4p) -> [3s,2p]
          4.   1
* S-type functions
   10    3
    1264.58570000
     189.93681000
      43.15908900
      12.09866300
       3.80632320
       1.27289030
       3.19646310
       0.74781330
       0.21996630
       0.08230990
  0.00194480  0.00000000  0.00000000
  0.01483510  0.00000000  0.00000000
  0.07209060  0.00000000  0.00000000
  0.23715420  0.00000000  0.00000000
  0.46919870  0.00000000  0.00000000
  0.35652020  0.00000000  0.00000000
  0.00000000 -0.11264870  0.00000000
  0.00000000 -0.22950640  0.00000000
  0.00000000  1.18691670  0.00000000
  0.00000000  0.00000000  1.00000000
* P-type functions
    4    2
       3.19646310
       0.74781330
       0.21996630
       0.08230990
  0.05598020  0.00000000
  0.26155060  0.00000000
  0.79397230  0.00000000
  0.00000000  1.00000000
/B.6-31G..10s4p.3s2p.
W.J. Hehre, R. Ditchfield and J.A. Pople, J. Chem. Phys. 56, 2257 (1972).
BORON        (10s,4p) -> [3s,2p]
          5.   1
* S-type functions
   10    3
    2068.88230000
     310.64957000
      70.68303300
      19.86108000
       6.29930480
       2.12702700
       4.72797100
       1.19033770
       0.35941170
       0.12675120
  0.00186630  0.00000000  0.00000000
  0.01425150  0.00000000  0.00000000
  0.06955160  0.00000000  0.00000000
  0.23257290  0.00000000  0.00000000
  0.46707870  0.00000000  0.00000000
  0.36343140  0.00000000  0.00000000
  0.00000000 -0.13039380  0.00000000
  0.00000000 -0.13078890  0.00000000
  0.00000000  1.13094440  0.00000000
  0.00000000  0.00000000  1.00000000
* P-type functions
    4    2
       4.72797100
       1.19033770
       0.35941170
       0.12675120
  0.07459760  0.00000000
  0.30784670  0.00000000
  0.74345680  0.00000000
  0.00000000  1.00000000
/C.6-31G..10s4p.3s2p.
W.J. Hehre, R. Ditchfield and J.A. Pople, J. Chem. Phys. 56, 2257 (1972).
CARBON       (10s,4p) -> [3s,2p]
          6.   1
* S-type functions
   10    3
    3047.52490000
     457.36951000
     103.94869000
      29.21015500
       9.28666300
       3.16392700
       7.86827240
       1.88128850
       0.54424930
       0.16871440
  0.00183470  0.00000000  0.00000000
  0.01403730  0.00000000  0.00000000
  0.06884260  0.00000000  0.00000000
  0.23218440  0.00000000  0.00000000
  0.46794130  0.00000000  0.00000000
  0.36231200  0.00000000  0.00000000
  0.00000000 -0.11933240  0.00000000
  0.00000000 -0.16085420  0.00000000
  0.00000000  1.14345640  0.00000000
  0.00000000  0.00000000  1.00000000
* P-type functions
    4    2
       7.86827240
       1.88128850
       0.54424930
       0.16871440
  0.06899910  0.00000000
  0.31642400  0.00000000
  0.74430830  0.00000000
  0.00000000  1.00000000
/N.6-31G..10s4p.3s2p.
W.J. Hehre, R. Ditchfield and J.A. Pople, J. Chem. Phys. 56, 2257 (1972).
NITROGEN     (10s,4p) -> [3s,2p]
          7.   1
* S-type functions
   10    3
    4173.51100000
     627.45790000
     142.90210000
      40.23433000
      12.82021000
       4.39043700
      11.62635800
       2.71628000
       0.77221800
       0.21203130
  0.00183480  0.00000000  0.00000000
  0.01399500  0.00000000  0.00000000
  0.06858700  0.00000000  0.00000000
  0.23224100  0.00000000  0.00000000
  0.46907000  0.00000000  0.00000000
  0.36045500  0.00000000  0.00000000
  0.00000000 -0.11496100  0.00000000
  0.00000000 -0.16911800  0.00000000
  0.00000000  1.14585200  0.00000000
  0.00000000  0.00000000  1.00000000
* P-type functions
    4    2
      11.62635800
       2.71628000
       0.77221800
       0.21203130
  0.06758000  0.00000000
  0.32390700  0.00000000
  0.74089500  0.00000000
  0.00000000  1.00000000
/O.6-31G..10s4p.3s2p.
W.J. Hehre, R. Ditchfield and J.A. Pople, J. Chem. Phys. 56, 2257 (1972).
OXYGEN       (10s,4p) -> [3s,2p]
          8.   1
* S-type functions
   10    3
    5484.67170000
     825.23495000
     188.04696000
      52.96450000
      16.89757000
       5.79963530
      15.53961600
       3.59993360
       1.01376180
       0.27000580
  0.00183110  0.00000000  0.00000000
  0.01395010  0.00000000  0.00000000
  0.06844510  0.00000000  0.00000000
  0.23271430  0.00000000  0.00000000
  0.47019300  0.00000000  0.00000000
  0.35852090  0.00000000  0.00000000
  0.00000000 -0.11077750  0.00000000
  0.00000000 -0.14802630  0.00000000
  0.00000000  1.13076700  0.00000000
  0.00000000  0.00000000  1.00000000
* P-type functions
    4    2
      15.53961600
       3.59993360
       1.01376180
       0.27000580
  0.07087430  0.00000000
  0.33975280  0.00000000
  0.72715860  0.00000000
  0.00000000  1.00000000
/F.6-31G..10s4p.3s2p.
W.J. Hehre, R. Ditchfield and J.A. Pople, J. Chem. Phys. 56, 2257 (1972).
FLUORINE     (10s,4p) -> [3s,2p]
          9.   1
* S-type functions
   10    3
    7001.71309000
    1051.36609000
     239.28569000
      67.39744530
      21.51995730
       7.40310130
      20.84795280
       4.80830834
       1.34406986
       0.35815139
  0.00181962  0.00000000  0.00000000
  0.01391608  0.00000000  0.00000000
  0.06840532  0.00000000  0.00000000
  0.23318576  0.00000000  0.00000000
  0.47126744  0.00000000  0.00000000
  0.35661855  0.00000000  0.00000000
  0.00000000 -0.10850698  0.00000000
  0.00000000 -0.14645166  0.00000000
  0.00000000  1.12868858  0.00000000
  0.00000000  0.00000000  1.00000000
* P-type functions
    4    2
      20.84795280
       4.80830834
       1.34406986
       0.35815139
  0.07162872  0.00000000
  0.34591210  0.00000000
  0.72246996  0.00000000
  0.00000000  1.00000000
/Ne.6-31G..10s4p.3s2p.
W.J. Hehre, R. Ditchfield and J.A. Pople, J. Chem. Phys. 56, 2257 (1972).
NEON         (10s,4p) -> [3s,2p]
         10.   1
* S-type functions
   10    3
    8425.85153000
    1268.51940000
     289.62141400
      81.85900400
      26.25150790
       9.09472051
      26.53213100
       6.10175501
       1.69627153
       0.44581870
  0.00188435  0.00000000  0.00000000
  0.01433690  0.00000000  0.00000000
  0.07010962  0.00000000  0.00000000
  0.23737327  0.00000000  0.00000000
  0.47300713  0.00000000  0.00000000
  0.34840124  0.00000000  0.00000000
  0.00000000 -0.10711829  0.00000000
  0.00000000 -0.14616382  0.00000000
  0.00000000  1.12777350  0.00000000
  0.00000000  0.00000000  1.00000000
* P-type functions
    4    2
      26.53213100
       6.10175501
       1.69627153
       0.44581870
  0.07190959  0.00000000
  0.34951337  0.00000000
  0.71994051  0.00000000
  0.00000000  1.00000000
/Na.6-31G..16s10p.4s3p.
M.M. Francl, W.J. Petro, W.J. Hehre, J.S. Binkley, M.S. Gordon, D.J. DeFrees and
SODIUM       (16s,10p) -> [4s,3p]  |  J.A. Pople, J. Chem. Phys. 77, 3654 (1982)
         11.   1
* S-type functions
   16    4
    9993.20000000
    1499.89000000
     341.95100000
      94.67970000
      29.73450000
      10.00630000
     150.96300000
      35.58780000
      11.16830000
       3.90201000
       1.38177000
       0.46638200
       0.49796600
       0.08435300
       0.06663500
       0.02595440
  0.00193770  0.00000000  0.00000000  0.00000000
  0.01480700  0.00000000  0.00000000  0.00000000
  0.07270600  0.00000000  0.00000000  0.00000000
  0.25262900  0.00000000  0.00000000  0.00000000
  0.49324200  0.00000000  0.00000000  0.00000000
  0.31316900  0.00000000  0.00000000  0.00000000
  0.00000000 -0.00354210  0.00000000  0.00000000
  0.00000000 -0.04395900  0.00000000  0.00000000
  0.00000000 -0.10975210  0.00000000  0.00000000
  0.00000000  0.18739800  0.00000000  0.00000000
  0.00000000  0.64669900  0.00000000  0.00000000
  0.00000000  0.30605800  0.00000000  0.00000000
  0.00000000  0.00000000 -0.24850300  0.00000000
  0.00000000  0.00000000 -0.13170400  0.00000000
  0.00000000  0.00000000  1.23352000  0.00000000
  0.00000000  0.00000000  0.00000000  1.00000000
* P-type functions
   10    3
     150.96300000
      35.58780000
      11.16830000
       3.90201000
       1.38177000
       0.46638200
       0.49796600
       0.08435300
       0.06663500
       0.02595440
  0.00500170  0.00000000  0.00000000
  0.03551100  0.00000000  0.00000000
  0.14282500  0.00000000  0.00000000
  0.33862000  0.00000000  0.00000000
  0.45157900  0.00000000  0.00000000
  0.27327100  0.00000000  0.00000000
  0.00000000 -0.02302300  0.00000000
  0.00000000  0.95035900  0.00000000
  0.00000000  0.05985800  0.00000000
  0.00000000  0.00000000  1.00000000
/Mg.6-31G..16s10p.4s3p.
M.M. Francl, W.J. Petro, W.J. Hehre, J.S. Binkley, M.S. Gordon, D.J. DeFrees and
MAGNESIUM    (16s,10p) -> [4s,3p]  |  J.A. Pople, J. Chem. Phys. 77, 3654 (1982)
         12.   1
* S-type functions
   16    4
   11722.80000000
    1759.93000000
     400.84600000
     112.80700000
      35.99970000
      12.18280000
     189.18000000
      45.21190000
      14.35630000
       5.13886000
       1.90652000
       0.70588700
       0.92934000
       0.26903500
       0.11737900
       0.04210610
  0.00197780  0.00000000  0.00000000  0.00000000
  0.01511400  0.00000000  0.00000000  0.00000000
  0.07391100  0.00000000  0.00000000  0.00000000
  0.24919100  0.00000000  0.00000000  0.00000000
  0.48792800  0.00000000  0.00000000  0.00000000
  0.31966200  0.00000000  0.00000000  0.00000000
  0.00000000 -0.00323720  0.00000000  0.00000000
  0.00000000 -0.04100800  0.00000000  0.00000000
  0.00000000 -0.11260000  0.00000000  0.00000000
  0.00000000  0.14863300  0.00000000  0.00000000
  0.00000000  0.61649700  0.00000000  0.00000000
  0.00000000  0.36482900  0.00000000  0.00000000
  0.00000000  0.00000000 -0.21229000  0.00000000
  0.00000000  0.00000000 -0.10798500  0.00000000
  0.00000000  0.00000000  1.17584000  0.00000000
  0.00000000  0.00000000  0.00000000  1.00000000
* P-type functions
   10    3
     189.18000000
      45.21190000
      14.35630000
       5.13886000
       1.90652000
       0.70588700
       0.92934000
       0.26903500
       0.11737900
       0.04210610
  0.00492810  0.00000000  0.00000000
  0.03498900  0.00000000  0.00000000
  0.14072500  0.00000000  0.00000000
  0.33364200  0.00000000  0.00000000
  0.44494000  0.00000000  0.00000000
  0.26925400  0.00000000  0.00000000
  0.00000000 -0.02241900  0.00000000
  0.00000000  0.19227000  0.00000000
  0.00000000  0.84618100  0.00000000
  0.00000000  0.00000000  1.00000000
/Al.6-31G..16s10p.4s3p.
M.M. Francl, W.J. Petro, W.J. Hehre, J.S. Binkley, M.S. Gordon, D.J. DeFrees and
ALUMINUM     (16s,10p) -> [4s,3p]  |  J.A. Pople, J. Chem. Phys. 77, 3654 (1982)
         13.   1
* S-type functions
   16    4
   13983.10000000
    2098.75000000
     477.70500000
     134.36000000
      42.87090000
      14.51890000
     239.66800000
      57.44190000
      18.28590000
       6.59914000
       2.49049000
       0.94454000
       1.27790000
       0.39759000
       0.16009500
       0.05565770
  0.00194267  0.00000000  0.00000000  0.00000000
  0.01485990  0.00000000  0.00000000  0.00000000
  0.07284940  0.00000000  0.00000000  0.00000000
  0.24683000  0.00000000  0.00000000  0.00000000
  0.48725800  0.00000000  0.00000000  0.00000000
  0.32349600  0.00000000  0.00000000  0.00000000
  0.00000000 -0.00292619  0.00000000  0.00000000
  0.00000000 -0.03740800  0.00000000  0.00000000
  0.00000000 -0.11448700  0.00000000  0.00000000
  0.00000000  0.11563500  0.00000000  0.00000000
  0.00000000  0.61259500  0.00000000  0.00000000
  0.00000000  0.39379900  0.00000000  0.00000000
  0.00000000  0.00000000 -0.22760600  0.00000000
  0.00000000  0.00000000  0.00144583  0.00000000
  0.00000000  0.00000000  1.09279000  0.00000000
  0.00000000  0.00000000  0.00000000  1.00000000
* P-type functions
   10    3
     239.66800000
      57.44190000
      18.28590000
       6.59914000
       2.49049000
       0.94454000
       1.27790000
       0.39759000
       0.16009500
       0.05565770
  0.00460285  0.00000000  0.00000000
  0.03319900  0.00000000  0.00000000
  0.13628200  0.00000000  0.00000000
  0.33047600  0.00000000  0.00000000
  0.44914600  0.00000000  0.00000000
  0.26570400  0.00000000  0.00000000
  0.00000000 -0.01751300  0.00000000
  0.00000000  0.24453300  0.00000000
  0.00000000  0.80493400  0.00000000
  0.00000000  0.00000000  1.00000000
/Si.6-31G..16s10p.4s3p.
M.M. Francl, W.J. Petro, W.J. Hehre, J.S. Binkley, M.S. Gordon, D.J. DeFrees and
SILICON      (16s,10p) -> [4s,3p]  |  J.A. Pople, J. Chem. Phys. 77, 3654 (1982)
         14.   1
* S-type functions
   16    4
   16115.90000000
    2425.58000000
     553.86700000
     156.34000000
      50.06830000
      17.01780000
     292.71800000
      69.87310000
      22.33630000
       8.15039000
       3.13458000
       1.22543000
       1.72738000
       0.57292200
       0.22219200
       0.07783690
  0.00195948  0.00000000  0.00000000  0.00000000
  0.01492880  0.00000000  0.00000000  0.00000000
  0.07284780  0.00000000  0.00000000  0.00000000
  0.24613000  0.00000000  0.00000000  0.00000000
  0.48591400  0.00000000  0.00000000  0.00000000
  0.32500200  0.00000000  0.00000000  0.00000000
  0.00000000 -0.00278094  0.00000000  0.00000000
  0.00000000 -0.03571460  0.00000000  0.00000000
  0.00000000 -0.11498500  0.00000000  0.00000000
  0.00000000  0.09356340  0.00000000  0.00000000
  0.00000000  0.60301700  0.00000000  0.00000000
  0.00000000  0.41895900  0.00000000  0.00000000
  0.00000000  0.00000000 -0.24463000  0.00000000
  0.00000000  0.00000000  0.00431572  0.00000000
  0.00000000  0.00000000  1.09818000  0.00000000
  0.00000000  0.00000000  0.00000000  1.00000000
* P-type functions
   10    3
     292.71800000
      69.87310000
      22.33630000
       8.15039000
       3.13458000
       1.22543000
       1.72738000
       0.57292200
       0.22219200
       0.07783690
  0.00443826  0.00000000  0.00000000
  0.03266790  0.00000000  0.00000000
  0.13472100  0.00000000  0.00000000
  0.32867800  0.00000000  0.00000000
  0.44964000  0.00000000  0.00000000
  0.26137200  0.00000000  0.00000000
  0.00000000 -0.01779510  0.00000000
  0.00000000  0.25353900  0.00000000
  0.00000000  0.80066900  0.00000000
  0.00000000  0.00000000  1.00000000
/P.6-31G..16s10p.4s3p.
M.M. Francl, W.J. Petro, W.J. Hehre, J.S. Binkley, M.S. Gordon, D.J. DeFrees and
PHOSPHORUS   (16s,10p) -> [4s,3p]  |  J.A. Pople, J. Chem. Phys. 77, 3654 (1982)
         15.   1
* S-type functions
   16    4
   19413.30000000
    2909.42000000
     661.36400000
     185.75900000
      59.19430000
      20.03100000
     339.47800000
      81.01010000
      25.87800000
       9.45221000
       3.66566000
       1.46746000
       2.15623000
       0.74899700
       0.28314500
       0.09983170
  0.00185160  0.00000000  0.00000000  0.00000000
  0.01420620  0.00000000  0.00000000  0.00000000
  0.06999950  0.00000000  0.00000000  0.00000000
  0.24007900  0.00000000  0.00000000  0.00000000
  0.48476200  0.00000000  0.00000000  0.00000000
  0.33520000  0.00000000  0.00000000  0.00000000
  0.00000000 -0.00278217  0.00000000  0.00000000
  0.00000000 -0.03604990  0.00000000  0.00000000
  0.00000000 -0.11663100  0.00000000  0.00000000
  0.00000000  0.09683280  0.00000000  0.00000000
  0.00000000  0.61441800  0.00000000  0.00000000
  0.00000000  0.40379800  0.00000000  0.00000000
  0.00000000  0.00000000 -0.25292300  0.00000000
  0.00000000  0.00000000  0.03285170  0.00000000
  0.00000000  0.00000000  1.08125000  0.00000000
  0.00000000  0.00000000  0.00000000  1.00000000
* P-type functions
   10    3
     339.47800000
      81.01010000
      25.87800000
       9.45221000
       3.66566000
       1.46746000
       2.15623000
       0.74899700
       0.28314500
       0.09983170
  0.00456462  0.00000000  0.00000000
  0.03369360  0.00000000  0.00000000
  0.13975500  0.00000000  0.00000000
  0.33936200  0.00000000  0.00000000
  0.45092100  0.00000000  0.00000000
  0.23858600  0.00000000  0.00000000
  0.00000000 -0.01776530  0.00000000
  0.00000000  0.27405800  0.00000000
  0.00000000  0.78542100  0.00000000
  0.00000000  0.00000000  1.00000000
/S.6-31G..16s10p.4s3p.
M.M. Francl, W.J. Petro, W.J. Hehre, J.S. Binkley, M.S. Gordon, D.J. DeFrees and
SULFUR       (16s,10p) -> [4s,3p]  |  J.A. Pople, J. Chem. Phys. 77, 3654 (1982)
         16.   1
* S-type functions
   16    4
   21917.10000000
    3301.49000000
     754.14600000
     212.71100000
      67.98960000
      23.05150000
     423.73500000
     100.71000000
      32.15990000
      11.80790000
       4.63110000
       1.87025000
       2.61584000
       0.92216700
       0.34128700
       0.11716700
  0.00186900  0.00000000  0.00000000  0.00000000
  0.01423000  0.00000000  0.00000000  0.00000000
  0.06969600  0.00000000  0.00000000  0.00000000
  0.23848700  0.00000000  0.00000000  0.00000000
  0.48330700  0.00000000  0.00000000  0.00000000
  0.33807400  0.00000000  0.00000000  0.00000000
  0.00000000 -0.00237670  0.00000000  0.00000000
  0.00000000 -0.03169300  0.00000000  0.00000000
  0.00000000 -0.11331700  0.00000000  0.00000000
  0.00000000  0.05609000  0.00000000  0.00000000
  0.00000000  0.59225500  0.00000000  0.00000000
  0.00000000  0.45500600  0.00000000  0.00000000
  0.00000000  0.00000000 -0.25037400  0.00000000
  0.00000000  0.00000000  0.06695700  0.00000000
  0.00000000  0.00000000  1.05451000  0.00000000
  0.00000000  0.00000000  0.00000000  1.00000000
* P-type functions
   10    3
     423.73500000
     100.71000000
      32.15990000
      11.80790000
       4.63110000
       1.87025000
       2.61584000
       0.92216700
       0.34128700
       0.11716700
  0.00406100  0.00000000  0.00000000
  0.03068100  0.00000000  0.00000000
  0.13045200  0.00000000  0.00000000
  0.32720500  0.00000000  0.00000000
  0.45285100  0.00000000  0.00000000
  0.25604200  0.00000000  0.00000000
  0.00000000 -0.01451100  0.00000000
  0.00000000  0.31026300  0.00000000
  0.00000000  0.75448300  0.00000000
  0.00000000  0.00000000  1.00000000
/Cl.6-31G..16s10p.4s3p.
M.M. Francl, W.J. Petro, W.J. Hehre, J.S. Binkley, M.S. Gordon, D.J. DeFrees and
CHLORINE     (16s,10p) -> [4s,3p]  |  J.A. Pople, J. Chem. Phys. 77, 3654 (1982)
         17.   1
* S-type functions
   16    4
   25180.10000000
    3780.35000000
     860.47400000
     242.14500000
      77.33490000
      26.24700000
     491.76500000
     116.98400000
      37.41530000
      13.78340000
       5.45215000
       2.22588000
       3.18649000
       1.14427000
       0.42037700
       0.14265700
  0.00183300  0.00000000  0.00000000  0.00000000
  0.01403400  0.00000000  0.00000000  0.00000000
  0.06909700  0.00000000  0.00000000  0.00000000
  0.23745200  0.00000000  0.00000000  0.00000000
  0.48303400  0.00000000  0.00000000  0.00000000
  0.33985600  0.00000000  0.00000000  0.00000000
  0.00000000 -0.00229740  0.00000000  0.00000000
  0.00000000 -0.03071400  0.00000000  0.00000000
  0.00000000 -0.11252800  0.00000000  0.00000000
  0.00000000  0.04501600  0.00000000  0.00000000
  0.00000000  0.58935300  0.00000000  0.00000000
  0.00000000  0.46520600  0.00000000  0.00000000
  0.00000000  0.00000000 -0.25183000  0.00000000
  0.00000000  0.00000000  0.06158900  0.00000000
  0.00000000  0.00000000  1.06018000  0.00000000
  0.00000000  0.00000000  0.00000000  1.00000000
* P-type functions
   10    3
     491.76500000
     116.98400000
      37.41530000
      13.78340000
       5.45215000
       2.22588000
       3.18649000
       1.14427000
       0.42037700
       0.14265700
  0.00398940  0.00000000  0.00000000
  0.03031800  0.00000000  0.00000000
  0.12988000  0.00000000  0.00000000
  0.32795100  0.00000000  0.00000000
  0.45352700  0.00000000  0.00000000
  0.25215400  0.00000000  0.00000000
  0.00000000 -0.01429900  0.00000000
  0.00000000  0.32357200  0.00000000
  0.00000000  0.74350700  0.00000000
  0.00000000  0.00000000  1.00000000
/Ar.6-31G..16s10p.4s3p.
M.M. Francl, W.J. Petro, W.J. Hehre, J.S. Binkley, M.S. Gordon, D.J. DeFrees and
Argon        (16s,10p) -> [4s,3p]  |  J.A. Pople, J. Chem. Phys. 77, 3654 (1982)
         18.   1
* S-type functions
   16    4
   28348.30000000
    4257.62000000
     969.85700000
     273.26300000
      87.36950000
      29.68670000
     575.89100000
     136.81600000
      43.80980000
      16.20940000
       6.46084000
       2.65114000
       3.86028000
       1.41373000
       0.51664600
       0.17388800
  0.00182526  0.00000000  0.00000000  0.00000000
  0.01396860  0.00000000  0.00000000  0.00000000
  0.06870730  0.00000000  0.00000000  0.00000000
  0.23620400  0.00000000  0.00000000  0.00000000
  0.48221400  0.00000000  0.00000000  0.00000000
  0.34204300  0.00000000  0.00000000  0.00000000
  0.00000000 -0.00215972  0.00000000  0.00000000
  0.00000000 -0.02907750  0.00000000  0.00000000
  0.00000000 -0.11082700  0.00000000  0.00000000
  0.00000000  0.02769990  0.00000000  0.00000000
  0.00000000  0.57761300  0.00000000  0.00000000
  0.00000000  0.48868800  0.00000000  0.00000000
  0.00000000  0.00000000 -0.25559200  0.00000000
  0.00000000  0.00000000  0.03780660  0.00000000
  0.00000000  0.00000000  1.08056000  0.00000000
  0.00000000  0.00000000  0.00000000  1.00000000
* P-type functions
   10    3
     575.89100000
     136.81600000
      43.80980000
      16.20940000
       6.46084000
       2.65114000
       3.86028000
       1.41373000
       0.51664600
       0.17388800
  0.00380665  0.00000000  0.00000000
  0.02923050  0.00000000  0.00000000
  0.12646700  0.00000000  0.00000000
  0.32351000  0.00000000  0.00000000
  0.45489600  0.00000000  0.00000000
  0.25663000  0.00000000  0.00000000
  0.00000000 -0.01591970  0.00000000
  0.00000000  0.32464600  0.00000000
  0.00000000  0.74399000  0.00000000
  0.00000000  0.00000000  1.00000000
/K.6-31G..22s16p.5s4p.
V. Rassolov, J.A. Pople, M. Ratner and T.L. Windus, J. Chem. Phys. (accepted)
POTASSIUM    (22s,16p) -> [5s,4p]  | 1998.
         19.   1
* S-type functions
   22    5
   31594.42000000
    4744.33000000
    1080.41900000
     304.23380000
      97.24586000
      33.02495000
     622.76250000
     147.88390000
      47.32735000
      17.51495000
       6.92272200
       2.76827700
      11.84802000
       4.07921100
       1.76348100
       0.78892700
       0.35038700
       0.14634400
       0.71680100
       0.23374100
       0.03867500
       0.01652100
  0.00182801  0.00000000  0.00000000  0.00000000  0.00000000
  0.01399403  0.00000000  0.00000000  0.00000000  0.00000000
  0.06887129  0.00000000  0.00000000  0.00000000  0.00000000
  0.23697600  0.00000000  0.00000000  0.00000000  0.00000000
  0.48290400  0.00000000  0.00000000  0.00000000  0.00000000
  0.34047950  0.00000000  0.00000000  0.00000000  0.00000000
  0.00000000 -0.00250298  0.00000000  0.00000000  0.00000000
  0.00000000 -0.03315550  0.00000000  0.00000000  0.00000000
  0.00000000 -0.12263870  0.00000000  0.00000000  0.00000000
  0.00000000  0.05353643  0.00000000  0.00000000  0.00000000
  0.00000000  0.61938600  0.00000000  0.00000000  0.00000000
  0.00000000  0.43458780  0.00000000  0.00000000  0.00000000
  0.00000000  0.00000000  0.01277689  0.00000000  0.00000000
  0.00000000  0.00000000  0.20987670  0.00000000  0.00000000
  0.00000000  0.00000000 -0.00309527  0.00000000  0.00000000
  0.00000000  0.00000000 -0.55938840  0.00000000  0.00000000
  0.00000000  0.00000000 -0.51347600  0.00000000  0.00000000
  0.00000000  0.00000000 -0.06598035  0.00000000  0.00000000
  0.00000000  0.00000000  0.00000000 -0.05237772  0.00000000
  0.00000000  0.00000000  0.00000000 -0.27985030  0.00000000
  0.00000000  0.00000000  0.00000000  1.14154700  0.00000000
  0.00000000  0.00000000  0.00000000  0.00000000  1.00000000
* P-type functions
   16    4
     622.76250000
     147.88390000
      47.32735000
      17.51495000
       6.92272200
       2.76827700
      11.84802000
       4.07921100
       1.76348100
       0.78892700
       0.35038700
       0.14634400
       0.71680100
       0.23374100
       0.03867500
       0.01652100
  0.00409464  0.00000000  0.00000000  0.00000000
  0.03145199  0.00000000  0.00000000  0.00000000
  0.13515580  0.00000000  0.00000000  0.00000000
  0.33905000  0.00000000  0.00000000  0.00000000
  0.46294550  0.00000000  0.00000000  0.00000000
  0.22426380  0.00000000  0.00000000  0.00000000
  0.00000000 -0.01221377  0.00000000  0.00000000
  0.00000000 -0.00690054  0.00000000  0.00000000
  0.00000000  0.20074660  0.00000000  0.00000000
  0.00000000  0.42813320  0.00000000  0.00000000
  0.00000000  0.39701560  0.00000000  0.00000000
  0.00000000  0.11047180  0.00000000  0.00000000
  0.00000000  0.00000000  0.03164300  0.00000000
  0.00000000  0.00000000 -0.04046160  0.00000000
  0.00000000  0.00000000  1.01202900  0.00000000
  0.00000000  0.00000000  0.00000000  1.00000000
/Ca.6-31G..22s16p.5s4p.
V. Rassolov, J.A. Pople, M. Ratner and T.L. Windus, J. Chem. Phys. (accepted)
CALCIUM      (22s,16p) -> [5s,4p]  | 1998.
         20.   1
* S-type functions
   22    5
   35264.86000000
    5295.50300000
    1206.02000000
     339.68390000
     108.62640000
      36.92103000
     706.30960000
     167.81870000
      53.82558000
      20.01638000
       7.97027900
       3.21205900
      14.19518000
       4.88082800
       2.16039000
       0.98789900
       0.44951700
       0.18738700
       1.03227100
       0.38117100
       0.06513100
       0.02601000
  0.00181350  0.00000000  0.00000000  0.00000000  0.00000000
  0.01388493  0.00000000  0.00000000  0.00000000  0.00000000
  0.06836162  0.00000000  0.00000000  0.00000000  0.00000000
  0.23561880  0.00000000  0.00000000  0.00000000  0.00000000
  0.48206390  0.00000000  0.00000000  0.00000000  0.00000000
  0.34298190  0.00000000  0.00000000  0.00000000  0.00000000
  0.00000000  0.00244823  0.00000000  0.00000000  0.00000000
  0.00000000  0.03241504  0.00000000  0.00000000  0.00000000
  0.00000000  0.12262190  0.00000000  0.00000000  0.00000000
  0.00000000 -0.04316965  0.00000000  0.00000000  0.00000000
  0.00000000 -0.61269950  0.00000000  0.00000000  0.00000000
  0.00000000 -0.44875400  0.00000000  0.00000000  0.00000000
  0.00000000  0.00000000  0.01084500  0.00000000  0.00000000
  0.00000000  0.00000000  0.20883330  0.00000000  0.00000000
  0.00000000  0.00000000  0.03150338  0.00000000  0.00000000
  0.00000000  0.00000000 -0.55265180  0.00000000  0.00000000
  0.00000000  0.00000000 -0.54379970  0.00000000  0.00000000
  0.00000000  0.00000000 -0.06669342  0.00000000  0.00000000
  0.00000000  0.00000000  0.00000000 -0.04439720  0.00000000
  0.00000000  0.00000000  0.00000000 -0.32845630  0.00000000
  0.00000000  0.00000000  0.00000000  1.16301000  0.00000000
  0.00000000  0.00000000  0.00000000  0.00000000  1.00000000
* P-type functions
   16    4
     706.30960000
     167.81870000
      53.82558000
      20.01638000
       7.97027900
       3.21205900
      14.19518000
       4.88082800
       2.16039000
       0.98789900
       0.44951700
       0.18738700
       1.03227100
       0.38117100
       0.06513100
       0.02601000
  0.00402037  0.00000000  0.00000000  0.00000000
  0.03100601  0.00000000  0.00000000  0.00000000
  0.13372790  0.00000000  0.00000000  0.00000000
  0.33679830  0.00000000  0.00000000  0.00000000
  0.46312810  0.00000000  0.00000000  0.00000000
  0.22575320  0.00000000  0.00000000  0.00000000
  0.00000000 -0.01289621  0.00000000  0.00000000
  0.00000000 -0.01025198  0.00000000  0.00000000
  0.00000000  0.19597810  0.00000000  0.00000000
  0.00000000  0.43579330  0.00000000  0.00000000
  0.00000000  0.39964520  0.00000000  0.00000000
  0.00000000  0.09713636  0.00000000  0.00000000
  0.00000000  0.00000000 -0.42986210  0.00000000
  0.00000000  0.00000000  0.00693583  0.00000000
  0.00000000  0.00000000  0.97059330  0.00000000
  0.00000000  0.00000000  0.00000000  1.00000000
/Sc.6-31G..22s16p4d.5s4p2d.
V. Rassolov, J.A. Pople, M. Ratner and T.L. Windus, J. Chem. Phys. (accepted)
SCANDIUM     (22s,16p,4d) -> [5s,4p,2d]  | 1998.
         21.   2
* S-type functions
   22    5
   39088.98000000
    5869.79200000
    1336.91000000
     376.60310000
     120.46790000
      40.98032000
     786.28520000
     186.88700000
      60.00935000
      22.25883000
       8.88514900
       3.60921100
      29.84355000
       9.54238300
       4.05679000
       1.70470300
       0.70623400
       0.27953600
       1.06560900
       0.42593300
       0.07632000
       0.02959400
  0.00180326  0.00000000  0.00000000  0.00000000  0.00000000
  0.01380769  0.00000000  0.00000000  0.00000000  0.00000000
  0.06800396  0.00000000  0.00000000  0.00000000  0.00000000
  0.23470990  0.00000000  0.00000000  0.00000000  0.00000000
  0.48156900  0.00000000  0.00000000  0.00000000  0.00000000
  0.34456520  0.00000000  0.00000000  0.00000000  0.00000000
  0.00000000  0.00245186  0.00000000  0.00000000  0.00000000
  0.00000000  0.03259579  0.00000000  0.00000000  0.00000000
  0.00000000  0.12382420  0.00000000  0.00000000  0.00000000
  0.00000000 -0.04359890  0.00000000  0.00000000  0.00000000
  0.00000000 -0.61771810  0.00000000  0.00000000  0.00000000
  0.00000000 -0.44328230  0.00000000  0.00000000  0.00000000
  0.00000000  0.00000000 -0.00258630  0.00000000  0.00000000
  0.00000000  0.00000000  0.07188424  0.00000000  0.00000000
  0.00000000  0.00000000  0.25032600  0.00000000  0.00000000
  0.00000000  0.00000000 -0.29910030  0.00000000  0.00000000
  0.00000000  0.00000000 -0.74468180  0.00000000  0.00000000
  0.00000000  0.00000000 -0.17997760  0.00000000  0.00000000
  0.00000000  0.00000000  0.00000000  0.06482978  0.00000000
  0.00000000  0.00000000  0.00000000  0.32537560  0.00000000
  0.00000000  0.00000000  0.00000000 -1.17080600  0.00000000
  0.00000000  0.00000000  0.00000000  0.00000000  1.00000000
* P-type functions
   16    4
     786.28520000
     186.88700000
      60.00935000
      22.25883000
       8.88514900
       3.60921100
      29.84355000
       9.54238300
       4.05679000
       1.70470300
       0.70623400
       0.27953600
       1.06560900
       0.42593300
       0.07632000
       0.02959400
  0.00403953  0.00000000  0.00000000  0.00000000
  0.03122570  0.00000000  0.00000000  0.00000000
  0.13498330  0.00000000  0.00000000  0.00000000
  0.34247930  0.00000000  0.00000000  0.00000000
  0.46231130  0.00000000  0.00000000  0.00000000
  0.21775240  0.00000000  0.00000000  0.00000000
  0.00000000 -0.00609665  0.00000000  0.00000000
  0.00000000 -0.02628884  0.00000000  0.00000000
  0.00000000  0.05091001  0.00000000  0.00000000
  0.00000000  0.37980970  0.00000000  0.00000000
  0.00000000  0.51708830  0.00000000  0.00000000
  0.00000000  0.18297720  0.00000000  0.00000000
  0.00000000  0.00000000 -0.29384400  0.00000000
  0.00000000  0.00000000  0.09235323  0.00000000
  0.00000000  0.00000000  0.98479300  0.00000000
  0.00000000  0.00000000  0.00000000  1.00000000
* D-type functions
    4    2
      11.14701000
       2.82104300
       0.81962000
       0.22146800
  0.08747672  0.00000000
  0.37956350  0.00000000
  0.71803930  0.00000000
  0.00000000  1.00000000
/Ti.6-31G..22s16p4d.5s4p2d.
V. Rassolov, J.A. Pople, M. Ratner and T.L. Windus, J. Chem. Phys. (accepted)
TITANIUM     (22s,16p,4d) -> [5s,4p,2d]  | 1998.
         22.   2
* S-type functions
   22    5
   43152.95000000
    6479.57100000
    1475.67500000
     415.69910000
     133.00060000
      45.27222000
     874.68260000
     207.97850000
      66.87918000
      24.87347000
       9.96844100
       4.06382600
      33.64363000
      10.87565000
       4.62822500
       1.95012600
       0.80945200
       0.32047400
       1.22414800
       0.48426300
       0.08409600
       0.03203600
  0.00179187  0.00000000  0.00000000  0.00000000  0.00000000
  0.01372392  0.00000000  0.00000000  0.00000000  0.00000000
  0.06762830  0.00000000  0.00000000  0.00000000  0.00000000
  0.23376420  0.00000000  0.00000000  0.00000000  0.00000000
  0.48106960  0.00000000  0.00000000  0.00000000  0.00000000
  0.34622800  0.00000000  0.00000000  0.00000000  0.00000000
  0.00000000  0.00243101  0.00000000  0.00000000  0.00000000
  0.00000000  0.03233027  0.00000000  0.00000000  0.00000000
  0.00000000  0.12425200  0.00000000  0.00000000  0.00000000
  0.00000000 -0.03903905  0.00000000  0.00000000  0.00000000
  0.00000000 -0.61717890  0.00000000  0.00000000  0.00000000
  0.00000000 -0.44730970  0.00000000  0.00000000  0.00000000
  0.00000000  0.00000000 -0.00294036  0.00000000  0.00000000
  0.00000000  0.00000000  0.07163103  0.00000000  0.00000000
  0.00000000  0.00000000  0.25289150  0.00000000  0.00000000
  0.00000000  0.00000000 -0.29664010  0.00000000  0.00000000
  0.00000000  0.00000000 -0.74322150  0.00000000  0.00000000
  0.00000000  0.00000000 -0.18535200  0.00000000  0.00000000
  0.00000000  0.00000000  0.00000000  0.06351465  0.00000000
  0.00000000  0.00000000  0.00000000  0.31514040  0.00000000
  0.00000000  0.00000000  0.00000000 -1.16259500  0.00000000
  0.00000000  0.00000000  0.00000000  0.00000000  1.00000000
* P-type functions
   16    4
     874.68260000
     207.97850000
      66.87918000
      24.87347000
       9.96844100
       4.06382600
      33.64363000
      10.87565000
       4.62822500
       1.95012600
       0.80945200
       0.32047400
       1.22414800
       0.48426300
       0.08409600
       0.03203600
  0.00401768  0.00000000  0.00000000  0.00000000
  0.03113966  0.00000000  0.00000000  0.00000000
  0.13490770  0.00000000  0.00000000  0.00000000
  0.34316720  0.00000000  0.00000000  0.00000000
  0.46257600  0.00000000  0.00000000  0.00000000
  0.21546030  0.00000000  0.00000000  0.00000000
  0.00000000 -0.00631162  0.00000000  0.00000000
  0.00000000 -0.02697638  0.00000000  0.00000000
  0.00000000  0.05316847  0.00000000  0.00000000
  0.00000000  0.38455490  0.00000000  0.00000000
  0.00000000  0.51276620  0.00000000  0.00000000
  0.00000000  0.18111350  0.00000000  0.00000000
  0.00000000  0.00000000 -0.21120700  0.00000000
  0.00000000  0.00000000  0.07771998  0.00000000
  0.00000000  0.00000000  0.98982140  0.00000000
  0.00000000  0.00000000  0.00000000  1.00000000
* D-type functions
    4    2
      13.69085000
       3.51315400
       1.04043400
       0.28696200
  0.08589418  0.00000000
  0.37846710  0.00000000
  0.71612390  0.00000000
  0.00000000  1.00000000
/V.6-31G..22s16p4d.5s4p2d.
V. Rassolov, J.A. Pople, M. Ratner and T.L. Windus, J. Chem. Phys. (accepted)
VANADIUM     (22s,16p,4d) -> [5s,4p,2d]  | 1998.
         23.   2
* S-type functions
   22    5
   47354.33000000
    7110.78700000
    1619.59100000
     456.33790000
     146.06060000
      49.75791000
     968.14840000
     230.28210000
      74.14591000
      27.64107000
      11.11475000
       4.54311300
      37.64050000
      12.28238000
       5.23336600
       2.20895000
       0.91788000
       0.36341200
       1.39278100
       0.54391300
       0.09147600
       0.03431200
  0.00178451  0.00000000  0.00000000  0.00000000  0.00000000
  0.01366754  0.00000000  0.00000000  0.00000000  0.00000000
  0.06736122  0.00000000  0.00000000  0.00000000  0.00000000
  0.23305520  0.00000000  0.00000000  0.00000000  0.00000000
  0.48063160  0.00000000  0.00000000  0.00000000  0.00000000
  0.34748020  0.00000000  0.00000000  0.00000000  0.00000000
  0.00000000  0.00241060  0.00000000  0.00000000  0.00000000
  0.00000000  0.03207243  0.00000000  0.00000000  0.00000000
  0.00000000  0.12459420  0.00000000  0.00000000  0.00000000
  0.00000000 -0.03482177  0.00000000  0.00000000  0.00000000
  0.00000000 -0.61673740  0.00000000  0.00000000  0.00000000
  0.00000000 -0.45098440  0.00000000  0.00000000  0.00000000
  0.00000000  0.00000000 -0.00323320  0.00000000  0.00000000
  0.00000000  0.00000000  0.07130744  0.00000000  0.00000000
  0.00000000  0.00000000  0.25438200  0.00000000  0.00000000
  0.00000000  0.00000000 -0.29338870  0.00000000  0.00000000
  0.00000000  0.00000000 -0.74156950  0.00000000  0.00000000
  0.00000000  0.00000000 -0.19094100  0.00000000  0.00000000
  0.00000000  0.00000000  0.00000000  0.06139703  0.00000000
  0.00000000  0.00000000  0.00000000  0.30611300  0.00000000
  0.00000000  0.00000000  0.00000000 -1.15489000  0.00000000
  0.00000000  0.00000000  0.00000000  0.00000000  1.00000000
* P-type functions
   16    4
     968.14840000
     230.28210000
      74.14591000
      27.64107000
      11.11475000
       4.54311300
      37.64050000
      12.28238000
       5.23336600
       2.20895000
       0.91788000
       0.36341200
       1.39278100
       0.54391300
       0.09147600
       0.03431200
  0.00399500  0.00000000  0.00000000  0.00000000
  0.03104061  0.00000000  0.00000000  0.00000000
  0.13477470  0.00000000  0.00000000  0.00000000
  0.34372790  0.00000000  0.00000000  0.00000000
  0.46287590  0.00000000  0.00000000  0.00000000
  0.21355470  0.00000000  0.00000000  0.00000000
  0.00000000 -0.00649406  0.00000000  0.00000000
  0.00000000 -0.02753453  0.00000000  0.00000000
  0.00000000  0.05516284  0.00000000  0.00000000
  0.00000000  0.38796720  0.00000000  0.00000000
  0.00000000  0.50902580  0.00000000  0.00000000
  0.00000000  0.18038400  0.00000000  0.00000000
  0.00000000  0.00000000 -0.18912650  0.00000000
  0.00000000  0.00000000  0.08005453  0.00000000
  0.00000000  0.00000000  0.98773990  0.00000000
  0.00000000  0.00000000  0.00000000  1.00000000
* D-type functions
    4    2
      16.05025000
       4.16006300
       1.24326500
       0.34427700
  0.08599899  0.00000000
  0.38029960  0.00000000
  0.71276590  0.00000000
  0.00000000  1.00000000
/Cr.6-31G..22s16p4d.5s4p2d.
V. Rassolov, J.A. Pople, M. Ratner and T.L. Windus, J. Chem. Phys. (accepted)
CHROMIUM     (22s,16p,4d) -> [5s,4p,2d]  | 1998.
         24.   2
* S-type functions
   22    5
   51789.81000000
    7776.84900000
    1771.38500000
     499.15880000
     159.79820000
      54.47021000
    1064.32800000
     253.21380000
      81.60924000
      30.48193000
      12.29439000
       5.03772200
      41.56291000
      13.67627000
       5.84439000
       2.47160900
       1.02830800
       0.40725000
       1.57146400
       0.60558000
       0.09856100
       0.03645900
  0.00177618  0.00000000  0.00000000  0.00000000  0.00000000
  0.01360476  0.00000000  0.00000000  0.00000000  0.00000000
  0.06706925  0.00000000  0.00000000  0.00000000  0.00000000
  0.23231040  0.00000000  0.00000000  0.00000000  0.00000000
  0.48024100  0.00000000  0.00000000  0.00000000  0.00000000
  0.34876530  0.00000000  0.00000000  0.00000000  0.00000000
  0.00000000  0.00239967  0.00000000  0.00000000  0.00000000
  0.00000000  0.03194886  0.00000000  0.00000000  0.00000000
  0.00000000  0.12508680  0.00000000  0.00000000  0.00000000
  0.00000000 -0.03221866  0.00000000  0.00000000  0.00000000
  0.00000000 -0.61722840  0.00000000  0.00000000  0.00000000
  0.00000000 -0.45259360  0.00000000  0.00000000  0.00000000
  0.00000000  0.00000000 -0.00345422  0.00000000  0.00000000
  0.00000000  0.00000000  0.07218428  0.00000000  0.00000000
  0.00000000  0.00000000  0.25448200  0.00000000  0.00000000
  0.00000000  0.00000000 -0.29345340  0.00000000  0.00000000
  0.00000000  0.00000000 -0.73854550  0.00000000  0.00000000
  0.00000000  0.00000000 -0.19471570  0.00000000  0.00000000
  0.00000000  0.00000000  0.00000000  0.05892219  0.00000000
  0.00000000  0.00000000  0.00000000  0.29760550  0.00000000
  0.00000000  0.00000000  0.00000000 -1.14750600  0.00000000
  0.00000000  0.00000000  0.00000000  0.00000000  1.00000000
* P-type functions
   16    4
    1064.32800000
     253.21380000
      81.60924000
      30.48193000
      12.29439000
       5.03772200
      41.56291000
      13.67627000
       5.84439000
       2.47160900
       1.02830800
       0.40725000
       1.57146400
       0.60558000
       0.09856100
       0.03645900
  0.00398700  0.00000000  0.00000000  0.00000000
  0.03104662  0.00000000  0.00000000  0.00000000
  0.13505180  0.00000000  0.00000000  0.00000000
  0.34488650  0.00000000  0.00000000  0.00000000
  0.46285710  0.00000000  0.00000000  0.00000000
  0.21104260  0.00000000  0.00000000  0.00000000
  0.00000000 -0.00672250  0.00000000  0.00000000
  0.00000000 -0.02806471  0.00000000  0.00000000
  0.00000000  0.05820028  0.00000000  0.00000000
  0.00000000  0.39169880  0.00000000  0.00000000
  0.00000000  0.50478230  0.00000000  0.00000000
  0.00000000  0.17902900  0.00000000  0.00000000
  0.00000000  0.00000000 -0.19301000  0.00000000
  0.00000000  0.00000000  0.09605620  0.00000000
  0.00000000  0.00000000  0.98176090  0.00000000
  0.00000000  0.00000000  0.00000000  1.00000000
* D-type functions
    4    2
      18.41930000
       4.81266100
       1.44644700
       0.40041300
  0.08650816  0.00000000
  0.38266990  0.00000000
  0.70937720  0.00000000
  0.00000000  1.00000000
/Mn.6-31G..22s16p4d.5s4p2d.
V. Rassolov, J.A. Pople, M. Ratner and T.L. Windus, J. Chem. Phys. (accepted)
MANGANESE    (22s,16p,4d) -> [5s,4p,2d]  | 1998.
         25.   2
* S-type functions
   22    5
   56347.14000000
    8460.94300000
    1927.32500000
     543.23430000
     173.99050000
      59.36005000
    1165.41200000
     277.32760000
      89.47278000
      33.48256000
      13.54037000
       5.55797200
      45.83532000
      15.18777000
       6.50071000
       2.75158300
       1.14540400
       0.45368700
       1.75799900
       0.66702200
       0.10512900
       0.03841800
  0.00177158  0.00000000  0.00000000  0.00000000  0.00000000
  0.01357081  0.00000000  0.00000000  0.00000000  0.00000000
  0.06690605  0.00000000  0.00000000  0.00000000  0.00000000
  0.23185410  0.00000000  0.00000000  0.00000000  0.00000000
  0.47990460  0.00000000  0.00000000  0.00000000  0.00000000
  0.34957370  0.00000000  0.00000000  0.00000000  0.00000000
  0.00000000  0.00238875  0.00000000  0.00000000  0.00000000
  0.00000000  0.03181708  0.00000000  0.00000000  0.00000000
  0.00000000  0.12546700  0.00000000  0.00000000  0.00000000
  0.00000000 -0.02955431  0.00000000  0.00000000  0.00000000
  0.00000000 -0.61751600  0.00000000  0.00000000  0.00000000
  0.00000000 -0.45444580  0.00000000  0.00000000  0.00000000
  0.00000000  0.00000000 -0.00366586  0.00000000  0.00000000
  0.00000000  0.00000000  0.07231971  0.00000000  0.00000000
  0.00000000  0.00000000  0.25444860  0.00000000  0.00000000
  0.00000000  0.00000000 -0.29103800  0.00000000  0.00000000
  0.00000000  0.00000000 -0.73598600  0.00000000  0.00000000
  0.00000000  0.00000000 -0.19976170  0.00000000  0.00000000
  0.00000000  0.00000000  0.00000000  0.05628572  0.00000000
  0.00000000  0.00000000  0.00000000  0.28974910  0.00000000
  0.00000000  0.00000000  0.00000000 -1.14065300  0.00000000
  0.00000000  0.00000000  0.00000000  0.00000000  1.00000000
* P-type functions
   16    4
    1165.41200000
     277.32760000
      89.47278000
      33.48256000
      13.54037000
       5.55797200
      45.83532000
      15.18777000
       6.50071000
       2.75158300
       1.14540400
       0.45368700
       1.75799900
       0.66702200
       0.10512900
       0.03841800
  0.00397732  0.00000000  0.00000000  0.00000000
  0.03103112  0.00000000  0.00000000  0.00000000
  0.13518940  0.00000000  0.00000000  0.00000000
  0.34573870  0.00000000  0.00000000  0.00000000
  0.46292050  0.00000000  0.00000000  0.00000000
  0.20905920  0.00000000  0.00000000  0.00000000
  0.00000000 -0.00688758  0.00000000  0.00000000
  0.00000000 -0.02846816  0.00000000  0.00000000
  0.00000000  0.06031832  0.00000000  0.00000000
  0.00000000  0.39389610  0.00000000  0.00000000
  0.00000000  0.50137690  0.00000000  0.00000000
  0.00000000  0.17922640  0.00000000  0.00000000
  0.00000000  0.00000000 -0.50350240  0.00000000
  0.00000000  0.00000000  0.23450110  0.00000000
  0.00000000  0.00000000  0.91412570  0.00000000
  0.00000000  0.00000000  0.00000000  1.00000000
* D-type functions
    4    2
      20.94355000
       5.51048600
       1.66503800
       0.46173300
  0.08672702  0.00000000
  0.38418830  0.00000000
  0.70690710  0.00000000
  0.00000000  1.00000000
/Fe.6-31G..22s16p4d.5s4p2d.
V. Rassolov, J.A. Pople, M. Ratner and T.L. Windus, J. Chem. Phys. (accepted)
IRON         (22s,16p,4d) -> [5s,4p,2d]  | 1998.
         26.   2
* S-type functions
   22    5
   61132.62000000
    9179.34200000
    2090.85700000
     589.24790000
     188.75430000
      64.44629000
    1259.98000000
     299.87610000
      96.84917000
      36.31020000
      14.72996000
       6.06607500
      50.43485000
      16.83929000
       7.19208600
       3.05342000
       1.27364300
       0.50409100
       1.95031600
       0.73672100
       0.11417700
       0.04114800
  0.00176611  0.00000000  0.00000000  0.00000000  0.00000000
  0.01353038  0.00000000  0.00000000  0.00000000  0.00000000
  0.06673128  0.00000000  0.00000000  0.00000000  0.00000000
  0.23148230  0.00000000  0.00000000  0.00000000  0.00000000
  0.47970580  0.00000000  0.00000000  0.00000000  0.00000000
  0.35019760  0.00000000  0.00000000  0.00000000  0.00000000
  0.00000000  0.00243801  0.00000000  0.00000000  0.00000000
  0.00000000  0.03224048  0.00000000  0.00000000  0.00000000
  0.00000000  0.12657240  0.00000000  0.00000000  0.00000000
  0.00000000 -0.03139902  0.00000000  0.00000000  0.00000000
  0.00000000 -0.62075930  0.00000000  0.00000000  0.00000000
  0.00000000 -0.45029140  0.00000000  0.00000000  0.00000000
  0.00000000  0.00000000 -0.00387326  0.00000000  0.00000000
  0.00000000  0.00000000  0.07196598  0.00000000  0.00000000
  0.00000000  0.00000000  0.25565910  0.00000000  0.00000000
  0.00000000  0.00000000 -0.28828370  0.00000000  0.00000000
  0.00000000  0.00000000 -0.73428220  0.00000000  0.00000000
  0.00000000  0.00000000 -0.20493530  0.00000000  0.00000000
  0.00000000  0.00000000  0.00000000  0.05694869  0.00000000
  0.00000000  0.00000000  0.00000000  0.28829150  0.00000000
  0.00000000  0.00000000  0.00000000 -1.13815900  0.00000000
  0.00000000  0.00000000  0.00000000  0.00000000  1.00000000
* P-type functions
   16    4
    1259.98000000
     299.87610000
      96.84917000
      36.31020000
      14.72996000
       6.06607500
      50.43485000
      16.83929000
       7.19208600
       3.05342000
       1.27364300
       0.50409100
       1.95031600
       0.73672100
       0.11417700
       0.04114800
  0.00402802  0.00000000  0.00000000  0.00000000
  0.03144647  0.00000000  0.00000000  0.00000000
  0.13683170  0.00000000  0.00000000  0.00000000
  0.34872360  0.00000000  0.00000000  0.00000000
  0.46179310  0.00000000  0.00000000  0.00000000
  0.20430580  0.00000000  0.00000000  0.00000000
  0.00000000 -0.00701713  0.00000000  0.00000000
  0.00000000 -0.02877660  0.00000000  0.00000000
  0.00000000  0.06181383  0.00000000  0.00000000
  0.00000000  0.39549460  0.00000000  0.00000000
  0.00000000  0.49890590  0.00000000  0.00000000
  0.00000000  0.17912510  0.00000000  0.00000000
  0.00000000  0.00000000 -0.45937960  0.00000000
  0.00000000  0.00000000  0.28521390  0.00000000
  0.00000000  0.00000000  0.90764850  0.00000000
  0.00000000  0.00000000  0.00000000  1.00000000
* D-type functions
    4    2
      23.14994000
       6.12236800
       1.84660100
       0.50436100
  0.08876935  0.00000000
  0.38963190  0.00000000
  0.70148160  0.00000000
  0.00000000  1.00000000
/Co.6-31G..22s16p4d.5s4p2d.
V. Rassolov, J.A. Pople, M. Ratner and T.L. Windus, J. Chem. Phys. (accepted)
COBALT       (22s,16p,4d) -> [5s,4p,2d]  | 1998.
         27.   2
* S-type functions
   22    5
   66148.99000000
    9933.07700000
    2262.81600000
     637.91540000
     204.41220000
      69.82538000
    1378.84100000
     328.26940000
     106.09460000
      39.83275000
      16.18622000
       6.66778800
      54.52355000
      18.29783000
       7.86734800
       3.34053400
       1.39375600
       0.55132600
       2.15194700
       0.81106300
       0.12101700
       0.04303700
  0.00175979  0.00000000  0.00000000  0.00000000  0.00000000
  0.01348162  0.00000000  0.00000000  0.00000000  0.00000000
  0.06649342  0.00000000  0.00000000  0.00000000  0.00000000
  0.23079390  0.00000000  0.00000000  0.00000000  0.00000000
  0.47929190  0.00000000  0.00000000  0.00000000  0.00000000
  0.35140970  0.00000000  0.00000000  0.00000000  0.00000000
  0.00000000  0.00237628  0.00000000  0.00000000  0.00000000
  0.00000000  0.03167450  0.00000000  0.00000000  0.00000000
  0.00000000  0.12628880  0.00000000  0.00000000  0.00000000
  0.00000000 -0.02584552  0.00000000  0.00000000  0.00000000
  0.00000000 -0.61834910  0.00000000  0.00000000  0.00000000
  0.00000000 -0.45670080  0.00000000  0.00000000  0.00000000
  0.00000000  0.00000000 -0.00399300  0.00000000  0.00000000
  0.00000000  0.00000000  0.07409663  0.00000000  0.00000000
  0.00000000  0.00000000  0.25420000  0.00000000  0.00000000
  0.00000000  0.00000000 -0.29216570  0.00000000  0.00000000
  0.00000000  0.00000000 -0.73187030  0.00000000  0.00000000
  0.00000000  0.00000000 -0.20407840  0.00000000  0.00000000
  0.00000000  0.00000000  0.00000000  0.05379843  0.00000000
  0.00000000  0.00000000  0.00000000  0.27599710  0.00000000
  0.00000000  0.00000000  0.00000000 -1.12969200  0.00000000
  0.00000000  0.00000000  0.00000000  0.00000000  1.00000000
* P-type functions
   16    4
    1378.84100000
     328.26940000
     106.09460000
      39.83275000
      16.18622000
       6.66778800
      54.52355000
      18.29783000
       7.86734800
       3.34053400
       1.39375600
       0.55132600
       2.15194700
       0.81106300
       0.12101700
       0.04303700
  0.00397149  0.00000000  0.00000000  0.00000000
  0.03108174  0.00000000  0.00000000  0.00000000
  0.13574390  0.00000000  0.00000000  0.00000000
  0.34768270  0.00000000  0.00000000  0.00000000
  0.46263400  0.00000000  0.00000000  0.00000000
  0.20516320  0.00000000  0.00000000  0.00000000
  0.00000000 -0.00729077  0.00000000  0.00000000
  0.00000000 -0.02926027  0.00000000  0.00000000
  0.00000000  0.06564150  0.00000000  0.00000000
  0.00000000  0.40006520  0.00000000  0.00000000
  0.00000000  0.49502360  0.00000000  0.00000000
  0.00000000  0.17582400  0.00000000  0.00000000
  0.00000000  0.00000000 -0.21654960  0.00000000
  0.00000000  0.00000000  0.12404880  0.00000000
  0.00000000  0.00000000  0.97240640  0.00000000
  0.00000000  0.00000000  0.00000000  1.00000000
* D-type functions
    4    2
      25.59306000
       6.80099000
       2.05164700
       0.55567100
  0.09004748  0.00000000
  0.39317030  0.00000000
  0.69768440  0.00000000
  0.00000000  1.00000000
/Ni.6-31G..22s16p4d.5s4p2d.
V. Rassolov, J.A. Pople, M. Ratner and T.L. Windus, J. Chem. Phys. (accepted)
NICKEL       (22s,16p,4d) -> [5s,4p,2d]  | 1998.
         28.   2
* S-type functions
   22    5
   71396.35000000
   10720.84000000
    2442.12900000
     688.42650000
     220.61530000
      75.39373000
    1492.53200000
     355.40130000
     114.95340000
      43.22043000
      17.59710000
       7.25776500
      59.35261000
      20.02181000
       8.61456100
       3.66053100
       1.52811100
       0.60405700
       2.37927600
       0.88583900
       0.12852900
       0.04519500
  0.00175300  0.00000000  0.00000000  0.00000000  0.00000000
  0.01343122  0.00000000  0.00000000  0.00000000  0.00000000
  0.06627041  0.00000000  0.00000000  0.00000000  0.00000000
  0.23025080  0.00000000  0.00000000  0.00000000  0.00000000
  0.47901860  0.00000000  0.00000000  0.00000000  0.00000000
  0.35234440  0.00000000  0.00000000  0.00000000  0.00000000
  0.00000000  0.00237071  0.00000000  0.00000000  0.00000000
  0.00000000  0.03160566  0.00000000  0.00000000  0.00000000
  0.00000000  0.12663350  0.00000000  0.00000000  0.00000000
  0.00000000 -0.02417037  0.00000000  0.00000000  0.00000000
  0.00000000 -0.61877750  0.00000000  0.00000000  0.00000000
  0.00000000 -0.45767700  0.00000000  0.00000000  0.00000000
  0.00000000  0.00000000 -0.00416200  0.00000000  0.00000000
  0.00000000  0.00000000  0.07425111  0.00000000  0.00000000
  0.00000000  0.00000000  0.25413600  0.00000000  0.00000000
  0.00000000  0.00000000 -0.29034770  0.00000000  0.00000000
  0.00000000  0.00000000 -0.73021210  0.00000000  0.00000000
  0.00000000  0.00000000 -0.20760570  0.00000000  0.00000000
  0.00000000  0.00000000  0.00000000  0.05157888  0.00000000
  0.00000000  0.00000000  0.00000000  0.27076110  0.00000000
  0.00000000  0.00000000  0.00000000 -1.12477000  0.00000000
  0.00000000  0.00000000  0.00000000  0.00000000  1.00000000
* P-type functions
   16    4
    1492.53200000
     355.40130000
     114.95340000
      43.22043000
      17.59710000
       7.25776500
      59.35261000
      20.02181000
       8.61456100
       3.66053100
       1.52811100
       0.60405700
       2.37927600
       0.88583900
       0.12852900
       0.04519500
  0.00396755  0.00000000  0.00000000  0.00000000
  0.03109479  0.00000000  0.00000000  0.00000000
  0.13595170  0.00000000  0.00000000  0.00000000
  0.34851360  0.00000000  0.00000000  0.00000000
  0.46254980  0.00000000  0.00000000  0.00000000
  0.20351860  0.00000000  0.00000000  0.00000000
  0.00000000 -0.00742145  0.00000000  0.00000000
  0.00000000 -0.02953410  0.00000000  0.00000000
  0.00000000  0.06731852  0.00000000  0.00000000
  0.00000000  0.40166600  0.00000000  0.00000000
  0.00000000  0.49266230  0.00000000  0.00000000
  0.00000000  0.17568930  0.00000000  0.00000000
  0.00000000  0.00000000 -0.18876630  0.00000000
  0.00000000  0.00000000  0.10151990  0.00000000
  0.00000000  0.00000000  0.97909060  0.00000000
  0.00000000  0.00000000  0.00000000  1.00000000
* D-type functions
    4    2
      28.19147000
       7.52358400
       2.27122800
       0.61160300
  0.09098881  0.00000000
  0.39582080  0.00000000
  0.69471540  0.00000000
  0.00000000  1.00000000
/Cu.6-31G..22s16p4d.5s4p2d.
V. Rassolov, J.A. Pople, M. Ratner and T.L. Windus, J. Chem. Phys. (accepted)
COPPER       (22s,16p,4d) -> [5s,4p,2d]  | 1998.
         29.   2
* S-type functions
   22    5
   76794.38000000
   11530.70000000
    2626.57500000
     740.49030000
     237.35280000
      81.15818000
    1610.81400000
     383.63670000
     124.17330000
      46.74678000
      19.06569000
       7.87156700
      64.45732000
      21.85212000
       9.40534300
       3.99916800
       1.67029700
       0.65962700
       2.60008800
       0.96309400
       0.13616100
       0.04733200
  0.00174816  0.00000000  0.00000000  0.00000000  0.00000000
  0.01339602  0.00000000  0.00000000  0.00000000  0.00000000
  0.06610885  0.00000000  0.00000000  0.00000000  0.00000000
  0.22982650  0.00000000  0.00000000  0.00000000  0.00000000
  0.47876750  0.00000000  0.00000000  0.00000000  0.00000000
  0.35307390  0.00000000  0.00000000  0.00000000  0.00000000
  0.00000000  0.00236405  0.00000000  0.00000000  0.00000000
  0.00000000  0.03153635  0.00000000  0.00000000  0.00000000
  0.00000000  0.12694520  0.00000000  0.00000000  0.00000000
  0.00000000 -0.02262840  0.00000000  0.00000000  0.00000000
  0.00000000 -0.61920800  0.00000000  0.00000000  0.00000000
  0.00000000 -0.45853930  0.00000000  0.00000000  0.00000000
  0.00000000  0.00000000 -0.00433108  0.00000000  0.00000000
  0.00000000  0.00000000  0.07412307  0.00000000  0.00000000
  0.00000000  0.00000000  0.25421080  0.00000000  0.00000000
  0.00000000  0.00000000 -0.28748430  0.00000000  0.00000000
  0.00000000  0.00000000 -0.72914360  0.00000000  0.00000000
  0.00000000  0.00000000 -0.21139510  0.00000000  0.00000000
  0.00000000  0.00000000  0.00000000  0.05027577  0.00000000
  0.00000000  0.00000000  0.00000000  0.26500400  0.00000000
  0.00000000  0.00000000  0.00000000 -1.12015500  0.00000000
  0.00000000  0.00000000  0.00000000  0.00000000  1.00000000
* P-type functions
   16    4
    1610.81400000
     383.63670000
     124.17330000
      46.74678000
      19.06569000
       7.87156700
      64.45732000
      21.85212000
       9.40534300
       3.99916800
       1.67029700
       0.65962700
       2.60008800
       0.96309400
       0.13616100
       0.04733200
  0.00396331  0.00000000  0.00000000  0.00000000
  0.03110223  0.00000000  0.00000000  0.00000000
  0.13613500  0.00000000  0.00000000  0.00000000
  0.34929140  0.00000000  0.00000000  0.00000000
  0.46247800  0.00000000  0.00000000  0.00000000
  0.20201020  0.00000000  0.00000000  0.00000000
  0.00000000 -0.00752373  0.00000000  0.00000000
  0.00000000 -0.02975687  0.00000000  0.00000000
  0.00000000  0.06849654  0.00000000  0.00000000
  0.00000000  0.40271410  0.00000000  0.00000000
  0.00000000  0.49084900  0.00000000  0.00000000
  0.00000000  0.17592680  0.00000000  0.00000000
  0.00000000  0.00000000 -0.17029110  0.00000000
  0.00000000  0.00000000  0.09310133  0.00000000
  0.00000000  0.00000000  0.98143360  0.00000000
  0.00000000  0.00000000  0.00000000  1.00000000
* D-type functions
    4    2
      30.85341000
       8.26498500
       2.49533200
       0.66765800
  0.09199905  0.00000000
  0.39850210  0.00000000
  0.69178970  0.00000000
  0.00000000  1.00000000
/Zn.6-31G..22s16p4d.5s4p2d.
V. Rassolov, J.A. Pople, M. Ratner and T.L. Windus, J. Chem. Phys. (accepted)
ZINC         (22s,16p,4d) -> [5s,4p,2d]  | 1998.
         30.   2
* S-type functions
   22    5
   82400.94000000
   12372.55000000
    2818.35100000
     794.57170000
     254.72320000
      87.13880000
    1732.56900000
     412.71490000
     133.67800000
      50.38585000
      20.58358000
       8.50594000
      69.36492000
      23.62082000
      10.18471000
       4.33408200
       1.81091800
       0.71484100
       2.82384200
       1.03954300
       0.14326400
       0.04929600
  0.00174333  0.00000000  0.00000000  0.00000000  0.00000000
  0.01335966  0.00000000  0.00000000  0.00000000  0.00000000
  0.06594365  0.00000000  0.00000000  0.00000000  0.00000000
  0.22941510  0.00000000  0.00000000  0.00000000  0.00000000
  0.47854530  0.00000000  0.00000000  0.00000000  0.00000000
  0.35377530  0.00000000  0.00000000  0.00000000  0.00000000
  0.00000000  0.00236146  0.00000000  0.00000000  0.00000000
  0.00000000  0.03150177  0.00000000  0.00000000  0.00000000
  0.00000000  0.12727740  0.00000000  0.00000000  0.00000000
  0.00000000 -0.02145928  0.00000000  0.00000000  0.00000000
  0.00000000 -0.61976520  0.00000000  0.00000000  0.00000000
  0.00000000 -0.45901800  0.00000000  0.00000000  0.00000000
  0.00000000  0.00000000 -0.00444010  0.00000000  0.00000000
  0.00000000  0.00000000  0.07505253  0.00000000  0.00000000
  0.00000000  0.00000000  0.25331110  0.00000000  0.00000000
  0.00000000  0.00000000 -0.28818970  0.00000000  0.00000000
  0.00000000  0.00000000 -0.72670520  0.00000000  0.00000000
  0.00000000  0.00000000 -0.21334390  0.00000000  0.00000000
  0.00000000  0.00000000  0.00000000  0.04898543  0.00000000
  0.00000000  0.00000000  0.00000000  0.25927930  0.00000000
  0.00000000  0.00000000  0.00000000 -1.11571100  0.00000000
  0.00000000  0.00000000  0.00000000  0.00000000  1.00000000
* P-type functions
   16    4
    1732.56900000
     412.71490000
     133.67800000
      50.38585000
      20.58358000
       8.50594000
      69.36492000
      23.62082000
      10.18471000
       4.33408200
       1.81091800
       0.71484100
       2.82384200
       1.03954300
       0.14326400
       0.04929600
  0.00396313  0.00000000  0.00000000  0.00000000
  0.03113411  0.00000000  0.00000000  0.00000000
  0.13639310  0.00000000  0.00000000  0.00000000
  0.35012660  0.00000000  0.00000000  0.00000000
  0.46231790  0.00000000  0.00000000  0.00000000
  0.20049950  0.00000000  0.00000000  0.00000000
  0.00000000 -0.00768926  0.00000000  0.00000000
  0.00000000 -0.02997982  0.00000000  0.00000000
  0.00000000  0.07082411  0.00000000  0.00000000
  0.00000000  0.40461410  0.00000000  0.00000000
  0.00000000  0.48823250  0.00000000  0.00000000
  0.00000000  0.17519700  0.00000000  0.00000000
  0.00000000  0.00000000 -0.15867630  0.00000000
  0.00000000  0.00000000  0.08379327  0.00000000
  0.00000000  0.00000000  0.98405470  0.00000000
  0.00000000  0.00000000  0.00000000  1.00000000
* D-type functions
    4    2
      33.70764000
       9.06110600
       2.73838300
       0.73029400
  0.09262648  0.00000000
  0.40029800  0.00000000
  0.68966080  0.00000000
  0.00000000  1.00000000
