************************************************************************
* This file is part of OpenMolcas.                                     *
*                                                                      *
* OpenMolcas is free software; you can redistribute it and/or modify   *
* it under the terms of the GNU Lesser General Public License, v. 2.1. *
* OpenMolcas is distributed in the hope that it will be useful, but it *
* is provided "as is" and without any express or implied warranties.   *
* For more details see the full text of the license in the file        *
* LICENSE or in <http://www.gnu.org/licenses/>.                        *
************************************************************************

#Hamiltonian NRH
#Nucleus UNK
#Contraction SEG
#AllElectron AE_

************************************************************************
* This file has been generated from Basis Set Exchange data:           *
*   https://www.basissetexchange.org                                   *
* Version: 0  (Data from the Original Basis Set Exchange)              *
************************************************************************

/H.6-311G**.Krishnan.5s1p.3s1p.
R. Krishnan, J.S. Binkley, R. Seeger, J.A. Pople. J. Chem. Phys. 72 (1980) 650-654. doi:10.1063/1.438955
HYDROGEN (5s,1p) -> [3s,1p]
     1.0   1
* s-type functions
    5    3
         33.86500000
          5.09479000
          1.15879000
          0.32584000
          0.10274100
  0.025493800000  0.000000000000  0.000000000000
  0.190373000000  0.000000000000  0.000000000000
  0.852161000000  0.000000000000  0.000000000000
  0.000000000000  1.000000000000  0.000000000000
  0.000000000000  0.000000000000  1.000000000000
* p-type functions
    1    1
          0.75000000
  1.000000000000

/He.6-311G**.Krishnan.5s1p.3s1p.
R. Krishnan, J.S. Binkley, R. Seeger, J.A. Pople. J. Chem. Phys. 72 (1980) 650-654. doi:10.1063/1.438955
HELIUM (5s,1p) -> [3s,1p]
     2.0   1
* s-type functions
    5    3
         98.12430000
         14.76890000
          3.31883000
          0.87404700
          0.24456400
  0.028745200000  0.000000000000  0.000000000000
  0.208061000000  0.000000000000  0.000000000000
  0.837635000000  0.000000000000  0.000000000000
  0.000000000000  1.000000000000  0.000000000000
  0.000000000000  0.000000000000  1.000000000000
* p-type functions
    1    1
          0.75000000
  1.000000000000

/Li.6-311G**.Krishnan.11s5p1d.4s3p1d.
R. Krishnan, J.S. Binkley, R. Seeger, J.A. Pople. J. Chem. Phys. 72 (1980) 650-654. doi:10.1063/1.438955
LITHIUM (11s,5p,1d) -> [4s,3p,1d]
     3.0   2
* s-type functions
   11    4
        900.46000000
        134.43300000
         30.43650000
          8.62639000
          2.48332000
          0.30317900
          4.86890000
          0.85692400
          0.24322700
          0.06350700
          0.02436830
  0.002287040000  0.000000000000  0.000000000000  0.000000000000
  0.017635000000  0.000000000000  0.000000000000  0.000000000000
  0.087343400000  0.000000000000  0.000000000000  0.000000000000
  0.280977000000  0.000000000000  0.000000000000  0.000000000000
  0.658741000000  0.000000000000  0.000000000000  0.000000000000
  0.118712000000  0.000000000000  0.000000000000  0.000000000000
  0.000000000000  0.093329300000  0.000000000000  0.000000000000
  0.000000000000  0.943045000000  0.000000000000  0.000000000000
  0.000000000000 -0.002798270000  0.000000000000  0.000000000000
  0.000000000000  0.000000000000  1.000000000000  0.000000000000
  0.000000000000  0.000000000000  0.000000000000  1.000000000000
* p-type functions
    5    3
          4.86890000
          0.85692400
          0.24322700
          0.06350700
          0.02436830
  0.032766100000  0.000000000000  0.000000000000
  0.159792000000  0.000000000000  0.000000000000
  0.885667000000  0.000000000000  0.000000000000
  0.000000000000  1.000000000000  0.000000000000
  0.000000000000  0.000000000000  1.000000000000
* d-type functions
    1    1
          0.20000000
  1.000000000000

/Be.6-311G**.Krishnan.11s5p1d.4s3p1d.
R. Krishnan, J.S. Binkley, R. Seeger, J.A. Pople. J. Chem. Phys. 72 (1980) 650-654. doi:10.1063/1.438955
BERYLLIUM (11s,5p,1d) -> [4s,3p,1d]
     4.0   2
* s-type functions
   11    4
       1682.80000000
        251.71500000
         57.41160000
         16.51710000
          4.85364000
          0.62686300
          8.30938000
          1.74075000
          0.48581600
          0.16361300
          0.05672850
  0.002285740000  0.000000000000  0.000000000000  0.000000000000
  0.017593800000  0.000000000000  0.000000000000  0.000000000000
  0.086331500000  0.000000000000  0.000000000000  0.000000000000
  0.281835000000  0.000000000000  0.000000000000  0.000000000000
  0.640594000000  0.000000000000  0.000000000000  0.000000000000
  0.144467000000  0.000000000000  0.000000000000  0.000000000000
  0.000000000000  0.108621000000  0.000000000000  0.000000000000
  0.000000000000  0.927301000000  0.000000000000  0.000000000000
  0.000000000000 -0.002971690000  0.000000000000  0.000000000000
  0.000000000000  0.000000000000  1.000000000000  0.000000000000
  0.000000000000  0.000000000000  0.000000000000  1.000000000000
* p-type functions
    5    3
          8.30938000
          1.74075000
          0.48581600
          0.16361300
          0.05672850
  0.036134400000  0.000000000000  0.000000000000
  0.216958000000  0.000000000000  0.000000000000
  0.841839000000  0.000000000000  0.000000000000
  0.000000000000  1.000000000000  0.000000000000
  0.000000000000  0.000000000000  1.000000000000
* d-type functions
    1    1
          0.25500000
  1.000000000000

/B.6-311G**.Krishnan.11s5p1d.4s3p1d.
R. Krishnan, J.S. Binkley, R. Seeger, J.A. Pople. J. Chem. Phys. 72 (1980) 650-654. doi:10.1063/1.438955
BORON (11s,5p,1d) -> [4s,3p,1d]
     5.0   2
* s-type functions
   11    4
       2858.89000000
        428.14000000
         97.52820000
         27.96930000
          8.21577000
          1.11278000
         13.24150000
          3.00166000
          0.91285600
          0.31545400
          0.09885630
  0.002153750000  0.000000000000  0.000000000000  0.000000000000
  0.016582300000  0.000000000000  0.000000000000  0.000000000000
  0.082187000000  0.000000000000  0.000000000000  0.000000000000
  0.276618000000  0.000000000000  0.000000000000  0.000000000000
  0.629316000000  0.000000000000  0.000000000000  0.000000000000
  0.173770000000  0.000000000000  0.000000000000  0.000000000000
  0.000000000000  0.117443000000  0.000000000000  0.000000000000
  0.000000000000  0.918002000000  0.000000000000  0.000000000000
  0.000000000000 -0.002651050000  0.000000000000  0.000000000000
  0.000000000000  0.000000000000  1.000000000000  0.000000000000
  0.000000000000  0.000000000000  0.000000000000  1.000000000000
* p-type functions
    5    3
         13.24150000
          3.00166000
          0.91285600
          0.31545400
          0.09885630
  0.041810000000  0.000000000000  0.000000000000
  0.236575000000  0.000000000000  0.000000000000
  0.816214000000  0.000000000000  0.000000000000
  0.000000000000  1.000000000000  0.000000000000
  0.000000000000  0.000000000000  1.000000000000
* d-type functions
    1    1
          0.40100000
  1.000000000000

/C.6-311G**.Krishnan.11s5p1d.4s3p1d.
R. Krishnan, J.S. Binkley, R. Seeger, J.A. Pople. J. Chem. Phys. 72 (1980) 650-654. doi:10.1063/1.438955
CARBON (11s,5p,1d) -> [4s,3p,1d]
     6.0   2
* s-type functions
   11    4
       4563.24000000
        682.02400000
        154.97300000
         44.45530000
         13.02900000
          1.82773000
         20.96420000
          4.80331000
          1.45933000
          0.48345600
          0.14558500
  0.001966650000  0.000000000000  0.000000000000  0.000000000000
  0.015230600000  0.000000000000  0.000000000000  0.000000000000
  0.076126900000  0.000000000000  0.000000000000  0.000000000000
  0.260801000000  0.000000000000  0.000000000000  0.000000000000
  0.616462000000  0.000000000000  0.000000000000  0.000000000000
  0.221006000000  0.000000000000  0.000000000000  0.000000000000
  0.000000000000  0.114660000000  0.000000000000  0.000000000000
  0.000000000000  0.919999000000  0.000000000000  0.000000000000
  0.000000000000 -0.003030680000  0.000000000000  0.000000000000
  0.000000000000  0.000000000000  1.000000000000  0.000000000000
  0.000000000000  0.000000000000  0.000000000000  1.000000000000
* p-type functions
    5    3
         20.96420000
          4.80331000
          1.45933000
          0.48345600
          0.14558500
  0.040248700000  0.000000000000  0.000000000000
  0.237594000000  0.000000000000  0.000000000000
  0.815854000000  0.000000000000  0.000000000000
  0.000000000000  1.000000000000  0.000000000000
  0.000000000000  0.000000000000  1.000000000000
* d-type functions
    1    1
          0.62600000
  1.000000000000

/N.6-311G**.Krishnan.11s5p1d.4s3p1d.
R. Krishnan, J.S. Binkley, R. Seeger, J.A. Pople. J. Chem. Phys. 72 (1980) 650-654. doi:10.1063/1.438955
NITROGEN (11s,5p,1d) -> [4s,3p,1d]
     7.0   2
* s-type functions
   11    4
       6293.48000000
        949.04400000
        218.77600000
         63.69160000
         18.82820000
          2.72023000
         30.63310000
          7.02614000
          2.11205000
          0.68400900
          0.20087800
  0.001969790000  0.000000000000  0.000000000000  0.000000000000
  0.014961300000  0.000000000000  0.000000000000  0.000000000000
  0.073500600000  0.000000000000  0.000000000000  0.000000000000
  0.248937000000  0.000000000000  0.000000000000  0.000000000000
  0.602460000000  0.000000000000  0.000000000000  0.000000000000
  0.256202000000  0.000000000000  0.000000000000  0.000000000000
  0.000000000000  0.111906000000  0.000000000000  0.000000000000
  0.000000000000  0.921666000000  0.000000000000  0.000000000000
  0.000000000000 -0.002569190000  0.000000000000  0.000000000000
  0.000000000000  0.000000000000  1.000000000000  0.000000000000
  0.000000000000  0.000000000000  0.000000000000  1.000000000000
* p-type functions
    5    3
         30.63310000
          7.02614000
          2.11205000
          0.68400900
          0.20087800
  0.038311900000  0.000000000000  0.000000000000
  0.237403000000  0.000000000000  0.000000000000
  0.817592000000  0.000000000000  0.000000000000
  0.000000000000  1.000000000000  0.000000000000
  0.000000000000  0.000000000000  1.000000000000
* d-type functions
    1    1
          0.91300000
  1.000000000000

/O.6-311G**.Krishnan.11s5p1d.4s3p1d.
R. Krishnan, J.S. Binkley, R. Seeger, J.A. Pople. J. Chem. Phys. 72 (1980) 650-654. doi:10.1063/1.438955
OXYGEN (11s,5p,1d) -> [4s,3p,1d]
     8.0   2
* s-type functions
   11    4
       8588.50000000
       1297.23000000
        299.29600000
         87.37710000
         25.67890000
          3.74004000
         42.11750000
          9.62837000
          2.85332000
          0.90566100
          0.25561100
  0.001895150000  0.000000000000  0.000000000000  0.000000000000
  0.014385900000  0.000000000000  0.000000000000  0.000000000000
  0.070732000000  0.000000000000  0.000000000000  0.000000000000
  0.240001000000  0.000000000000  0.000000000000  0.000000000000
  0.594797000000  0.000000000000  0.000000000000  0.000000000000
  0.280802000000  0.000000000000  0.000000000000  0.000000000000
  0.000000000000  0.113889000000  0.000000000000  0.000000000000
  0.000000000000  0.920811000000  0.000000000000  0.000000000000
  0.000000000000 -0.003274470000  0.000000000000  0.000000000000
  0.000000000000  0.000000000000  1.000000000000  0.000000000000
  0.000000000000  0.000000000000  0.000000000000  1.000000000000
* p-type functions
    5    3
         42.11750000
          9.62837000
          2.85332000
          0.90566100
          0.25561100
  0.036511400000  0.000000000000  0.000000000000
  0.237153000000  0.000000000000  0.000000000000
  0.819702000000  0.000000000000  0.000000000000
  0.000000000000  1.000000000000  0.000000000000
  0.000000000000  0.000000000000  1.000000000000
* d-type functions
    1    1
          1.29200000
  1.000000000000

/F.6-311G**.Krishnan.11s5p1d.4s3p1d.
R. Krishnan, J.S. Binkley, R. Seeger, J.A. Pople. J. Chem. Phys. 72 (1980) 650-654. doi:10.1063/1.438955
FLUORINE (11s,5p,1d) -> [4s,3p,1d]
     9.0   2
* s-type functions
   11    4
      11427.10000000
       1722.35000000
        395.74600000
        115.13900000
         33.60260000
          4.91901000
         55.44410000
         12.63230000
          3.71756000
          1.16545000
          0.32189200
  0.001800930000  0.000000000000  0.000000000000  0.000000000000
  0.013741900000  0.000000000000  0.000000000000  0.000000000000
  0.068133400000  0.000000000000  0.000000000000  0.000000000000
  0.233325000000  0.000000000000  0.000000000000  0.000000000000
  0.589086000000  0.000000000000  0.000000000000  0.000000000000
  0.299505000000  0.000000000000  0.000000000000  0.000000000000
  0.000000000000  0.114536000000  0.000000000000  0.000000000000
  0.000000000000  0.920512000000  0.000000000000  0.000000000000
  0.000000000000 -0.003378040000  0.000000000000  0.000000000000
  0.000000000000  0.000000000000  1.000000000000  0.000000000000
  0.000000000000  0.000000000000  0.000000000000  1.000000000000
* p-type functions
    5    3
         55.44410000
         12.63230000
          3.71756000
          1.16545000
          0.32189200
  0.035460900000  0.000000000000  0.000000000000
  0.237451000000  0.000000000000  0.000000000000
  0.820458000000  0.000000000000  0.000000000000
  0.000000000000  1.000000000000  0.000000000000
  0.000000000000  0.000000000000  1.000000000000
* d-type functions
    1    1
          1.75000000
  1.000000000000

/Ne.6-311G**.Krishnan.11s5p1d.4s3p1d.
R. Krishnan, J.S. Binkley, R. Seeger, J.A. Pople. J. Chem. Phys. 72 (1980) 650-654. doi:10.1063/1.438955
NEON (11s,5p,1d) -> [4s,3p,1d]
    10.0   2
* s-type functions
   11    4
      13995.70000000
       2117.10000000
        490.42500000
        143.83300000
         41.92650000
          6.15684000
         69.12110000
         15.83500000
          4.67326000
          1.45756000
          0.39705700
  0.001832760000  0.000000000000  0.000000000000  0.000000000000
  0.013882700000  0.000000000000  0.000000000000  0.000000000000
  0.068068700000  0.000000000000  0.000000000000  0.000000000000
  0.231328000000  0.000000000000  0.000000000000  0.000000000000
  0.585890000000  0.000000000000  0.000000000000  0.000000000000
  0.305883000000  0.000000000000  0.000000000000  0.000000000000
  0.000000000000  0.119149000000  0.000000000000  0.000000000000
  0.000000000000  0.917375000000  0.000000000000  0.000000000000
  0.000000000000 -0.004058390000  0.000000000000  0.000000000000
  0.000000000000  0.000000000000  1.000000000000  0.000000000000
  0.000000000000  0.000000000000  0.000000000000  1.000000000000
* p-type functions
    5    3
         69.12110000
         15.83500000
          4.67326000
          1.45756000
          0.39705700
  0.035657400000  0.000000000000  0.000000000000
  0.239477000000  0.000000000000  0.000000000000
  0.818461000000  0.000000000000  0.000000000000
  0.000000000000  1.000000000000  0.000000000000
  0.000000000000  0.000000000000  1.000000000000
* d-type functions
    1    1
          2.30400000
  1.000000000000

/Na.6-311G**.Francl.12s9p1d.6s5p1d.
M.M. Francl, W.J. Pietro, W.J. Hehre, J.S. Binkley, M.S. Gordon, D.J. DeFrees, J.A. Pople. J. Chem. Phys. 77 (1982) 3654-3665. doi:10.1063/1.444267
SODIUM (12s,9p,1d) -> [6s,5p,1d]
Options
Cartesian d
EndOptions
    11.0   2
* s-type functions
   12    6
      36166.40000000
       5372.58000000
       1213.21000000
        339.62300000
        109.55300000
         38.77730000
         14.57590000
          5.26993000
          1.82777000
          0.61994800
          0.05724000
          0.02404800
  0.001032000000  0.000000000000  0.000000000000  0.000000000000  0.000000000000  0.000000000000
  0.008071000000  0.000000000000  0.000000000000  0.000000000000  0.000000000000  0.000000000000
  0.042129000000  0.000000000000  0.000000000000  0.000000000000  0.000000000000  0.000000000000
  0.169789000000  0.000000000000  0.000000000000  0.000000000000  0.000000000000  0.000000000000
  0.514621000000  0.000000000000  0.000000000000  0.000000000000  0.000000000000  0.000000000000
  0.379817000000  0.374762000000  0.000000000000  0.000000000000  0.000000000000  0.000000000000
  0.000000000000  0.575769000000  0.000000000000  0.000000000000  0.000000000000  0.000000000000
  0.000000000000  0.112933000000  0.000000000000  0.000000000000  0.000000000000  0.000000000000
  0.000000000000  0.000000000000  1.000000000000  0.000000000000  0.000000000000  0.000000000000
  0.000000000000  0.000000000000  0.000000000000  1.000000000000  0.000000000000  0.000000000000
  0.000000000000  0.000000000000  0.000000000000  0.000000000000  1.000000000000  0.000000000000
  0.000000000000  0.000000000000  0.000000000000  0.000000000000  0.000000000000  1.000000000000
* p-type functions
    9    5
        144.64500000
         33.90740000
         10.62850000
          3.82389000
          1.44429000
          0.55262100
          0.18872000
          0.04650100
          0.01628500
  0.011485000000  0.000000000000  0.000000000000  0.000000000000  0.000000000000
  0.082383000000  0.000000000000  0.000000000000  0.000000000000  0.000000000000
  0.319658000000  0.000000000000  0.000000000000  0.000000000000  0.000000000000
  0.701295000000  0.000000000000  0.000000000000  0.000000000000  0.000000000000
  0.000000000000  0.638506000000  0.000000000000  0.000000000000  0.000000000000
  0.000000000000  0.425365000000  0.000000000000  0.000000000000  0.000000000000
  0.000000000000  0.000000000000  1.000000000000  0.000000000000  0.000000000000
  0.000000000000  0.000000000000  0.000000000000  1.000000000000  0.000000000000
  0.000000000000  0.000000000000  0.000000000000  0.000000000000  1.000000000000
* d-type functions
    1    1
          0.17500000
  1.000000000000

/Mg.6-311G**.Francl.12s9p1d.6s5p1d.
M.M. Francl, W.J. Pietro, W.J. Hehre, J.S. Binkley, M.S. Gordon, D.J. DeFrees, J.A. Pople. J. Chem. Phys. 77 (1982) 3654-3665. doi:10.1063/1.444267
MAGNESIUM (12s,9p,1d) -> [6s,5p,1d]
Options
Cartesian d
EndOptions
    12.0   2
* s-type functions
   12    6
      43866.50000000
       6605.37000000
       1513.26000000
        432.31700000
        142.14900000
         51.39830000
         19.91960000
          8.02474000
          2.50817000
          0.87153100
          0.10818800
          0.04013000
  0.000918000000  0.000000000000  0.000000000000  0.000000000000  0.000000000000  0.000000000000
  0.007047000000  0.000000000000  0.000000000000  0.000000000000  0.000000000000  0.000000000000
  0.035941000000  0.000000000000  0.000000000000  0.000000000000  0.000000000000  0.000000000000
  0.141461000000  0.000000000000  0.000000000000  0.000000000000  0.000000000000  0.000000000000
  0.426764000000  0.000000000000  0.000000000000  0.000000000000  0.000000000000  0.000000000000
  0.497975000000  0.251355000000  0.000000000000  0.000000000000  0.000000000000  0.000000000000
  0.000000000000  0.618671000000  0.000000000000  0.000000000000  0.000000000000  0.000000000000
  0.000000000000  0.188417000000  0.000000000000  0.000000000000  0.000000000000  0.000000000000
  0.000000000000  0.000000000000  1.000000000000  0.000000000000  0.000000000000  0.000000000000
  0.000000000000  0.000000000000  0.000000000000  1.000000000000  0.000000000000  0.000000000000
  0.000000000000  0.000000000000  0.000000000000  0.000000000000  1.000000000000  0.000000000000
  0.000000000000  0.000000000000  0.000000000000  0.000000000000  0.000000000000  1.000000000000
* p-type functions
    9    5
        193.85400000
         45.44200000
         14.18640000
          5.05751000
          1.88861000
          0.72265200
          0.23641700
          0.09335800
          0.03480900
  0.010188000000  0.000000000000  0.000000000000  0.000000000000  0.000000000000
  0.075360000000  0.000000000000  0.000000000000  0.000000000000  0.000000000000
  0.307419000000  0.000000000000  0.000000000000  0.000000000000  0.000000000000
  0.717575000000  0.000000000000  0.000000000000  0.000000000000  0.000000000000
  0.000000000000  0.667339000000  0.000000000000  0.000000000000  0.000000000000
  0.000000000000  0.394649000000  0.000000000000  0.000000000000  0.000000000000
  0.000000000000  0.000000000000  1.000000000000  0.000000000000  0.000000000000
  0.000000000000  0.000000000000  0.000000000000  1.000000000000  0.000000000000
  0.000000000000  0.000000000000  0.000000000000  0.000000000000  1.000000000000
* d-type functions
    1    1
          0.17500000
  1.000000000000

/Al.6-311G**.Francl.12s9p1d.6s5p1d.
M.M. Francl, W.J. Pietro, W.J. Hehre, J.S. Binkley, M.S. Gordon, D.J. DeFrees, J.A. Pople. J. Chem. Phys. 77 (1982) 3654-3665. doi:10.1063/1.444267
ALUMINIUM (12s,9p,1d) -> [6s,5p,1d]
Options
Cartesian d
EndOptions
    13.0   2
* s-type functions
   12    6
      54866.48900000
       8211.76650000
       1866.17610000
        531.12934000
        175.11797000
         64.00550000
         25.29250700
         10.53491000
          3.20671100
          1.15255500
          0.17667800
          0.06523700
  0.000839000000  0.000000000000  0.000000000000  0.000000000000  0.000000000000  0.000000000000
  0.006527000000  0.000000000000  0.000000000000  0.000000000000  0.000000000000  0.000000000000
  0.033666000000  0.000000000000  0.000000000000  0.000000000000  0.000000000000  0.000000000000
  0.132902000000  0.000000000000  0.000000000000  0.000000000000  0.000000000000  0.000000000000
  0.401266000000  0.000000000000  0.000000000000  0.000000000000  0.000000000000  0.000000000000
  0.531338000000  0.202305000000  0.000000000000  0.000000000000  0.000000000000  0.000000000000
  0.000000000000  0.624790000000  0.000000000000  0.000000000000  0.000000000000  0.000000000000
  0.000000000000  0.227439000000  0.000000000000  0.000000000000  0.000000000000  0.000000000000
  0.000000000000  0.000000000000  1.000000000000  0.000000000000  0.000000000000  0.000000000000
  0.000000000000  0.000000000000  0.000000000000  1.000000000000  0.000000000000  0.000000000000
  0.000000000000  0.000000000000  0.000000000000  0.000000000000  1.000000000000  0.000000000000
  0.000000000000  0.000000000000  0.000000000000  0.000000000000  0.000000000000  1.000000000000
* p-type functions
    9    5
        259.28362000
         61.07687000
         19.30323700
          7.01088200
          2.67386500
          1.03659600
          0.31681900
          0.11425700
          0.04139700
  0.009448000000  0.000000000000  0.000000000000  0.000000000000  0.000000000000
  0.070974000000  0.000000000000  0.000000000000  0.000000000000  0.000000000000
  0.295636000000  0.000000000000  0.000000000000  0.000000000000  0.000000000000
  0.728219000000  0.000000000000  0.000000000000  0.000000000000  0.000000000000
  0.000000000000  0.644467000000  0.000000000000  0.000000000000  0.000000000000
  0.000000000000  0.417413000000  0.000000000000  0.000000000000  0.000000000000
  0.000000000000  0.000000000000  1.000000000000  0.000000000000  0.000000000000
  0.000000000000  0.000000000000  0.000000000000  1.000000000000  0.000000000000
  0.000000000000  0.000000000000  0.000000000000  0.000000000000  1.000000000000
* d-type functions
    1    1
          0.32500000
  1.000000000000

/Si.6-311G**.Francl.12s9p1d.6s5p1d.
M.M. Francl, W.J. Pietro, W.J. Hehre, J.S. Binkley, M.S. Gordon, D.J. DeFrees, J.A. Pople. J. Chem. Phys. 77 (1982) 3654-3665. doi:10.1063/1.444267
SILICON (12s,9p,1d) -> [6s,5p,1d]
Options
Cartesian d
EndOptions
    14.0   2
* s-type functions
   12    6
      69379.23000000
      10354.94000000
       2333.87960000
        657.14295000
        214.30113000
         77.62916800
         30.63080700
         12.80129500
          3.92686600
          1.45234300
          0.25623400
          0.09427900
  0.000757000000  0.000000000000  0.000000000000  0.000000000000  0.000000000000  0.000000000000
  0.005932000000  0.000000000000  0.000000000000  0.000000000000  0.000000000000  0.000000000000
  0.031088000000  0.000000000000  0.000000000000  0.000000000000  0.000000000000  0.000000000000
  0.124967000000  0.000000000000  0.000000000000  0.000000000000  0.000000000000  0.000000000000
  0.386897000000  0.000000000000  0.000000000000  0.000000000000  0.000000000000  0.000000000000
  0.554888000000  0.177881000000  0.000000000000  0.000000000000  0.000000000000  0.000000000000
  0.000000000000  0.627765000000  0.000000000000  0.000000000000  0.000000000000  0.000000000000
  0.000000000000  0.247623000000  0.000000000000  0.000000000000  0.000000000000  0.000000000000
  0.000000000000  0.000000000000  1.000000000000  0.000000000000  0.000000000000  0.000000000000
  0.000000000000  0.000000000000  0.000000000000  1.000000000000  0.000000000000  0.000000000000
  0.000000000000  0.000000000000  0.000000000000  0.000000000000  1.000000000000  0.000000000000
  0.000000000000  0.000000000000  0.000000000000  0.000000000000  0.000000000000  1.000000000000
* p-type functions
    9    5
        335.48319000
         78.90036600
         24.98815000
          9.21971100
          3.62114000
          1.45131000
          0.50497700
          0.18631700
          0.06543200
  0.008866000000  0.000000000000  0.000000000000  0.000000000000  0.000000000000
  0.068299000000  0.000000000000  0.000000000000  0.000000000000  0.000000000000
  0.290958000000  0.000000000000  0.000000000000  0.000000000000  0.000000000000
  0.732117000000  0.000000000000  0.000000000000  0.000000000000  0.000000000000
  0.000000000000  0.619879000000  0.000000000000  0.000000000000  0.000000000000
  0.000000000000  0.439148000000  0.000000000000  0.000000000000  0.000000000000
  0.000000000000  0.000000000000  1.000000000000  0.000000000000  0.000000000000
  0.000000000000  0.000000000000  0.000000000000  1.000000000000  0.000000000000
  0.000000000000  0.000000000000  0.000000000000  0.000000000000  1.000000000000
* d-type functions
    1    1
          0.45000000
  1.000000000000

/P.6-311G**.Francl.12s9p1d.6s5p1d.
M.M. Francl, W.J. Pietro, W.J. Hehre, J.S. Binkley, M.S. Gordon, D.J. DeFrees, J.A. Pople. J. Chem. Phys. 77 (1982) 3654-3665. doi:10.1063/1.444267
PHOSPHORUS (12s,9p,1d) -> [6s,5p,1d]
Options
Cartesian d
EndOptions
    15.0   2
* s-type functions
   12    6
      77492.40000000
      11605.80000000
       2645.96000000
        754.97600000
        248.75500000
         91.15650000
         36.22570000
         15.21130000
          4.79417000
          1.80793000
          0.35681600
          0.11478300
  0.000781000000  0.000000000000  0.000000000000  0.000000000000  0.000000000000  0.000000000000
  0.006068000000  0.000000000000  0.000000000000  0.000000000000  0.000000000000  0.000000000000
  0.031160000000  0.000000000000  0.000000000000  0.000000000000  0.000000000000  0.000000000000
  0.123431000000  0.000000000000  0.000000000000  0.000000000000  0.000000000000  0.000000000000
  0.378209000000  0.000000000000  0.000000000000  0.000000000000  0.000000000000  0.000000000000
  0.563262000000  0.160255000000  0.000000000000  0.000000000000  0.000000000000  0.000000000000
  0.000000000000  0.627647000000  0.000000000000  0.000000000000  0.000000000000  0.000000000000
  0.000000000000  0.263849000000  0.000000000000  0.000000000000  0.000000000000  0.000000000000
  0.000000000000  0.000000000000  1.000000000000  0.000000000000  0.000000000000  0.000000000000
  0.000000000000  0.000000000000  0.000000000000  1.000000000000  0.000000000000  0.000000000000
  0.000000000000  0.000000000000  0.000000000000  0.000000000000  1.000000000000  0.000000000000
  0.000000000000  0.000000000000  0.000000000000  0.000000000000  0.000000000000  1.000000000000
* p-type functions
    9    5
        384.84300000
         90.55210000
         29.13390000
         10.88620000
          4.35259000
          1.77706000
          0.69700500
          0.25353200
          0.06849300
  0.009206000000  0.000000000000  0.000000000000  0.000000000000  0.000000000000
  0.069874000000  0.000000000000  0.000000000000  0.000000000000  0.000000000000
  0.292470000000  0.000000000000  0.000000000000  0.000000000000  0.000000000000
  0.728103000000  0.000000000000  0.000000000000  0.000000000000  0.000000000000
  0.000000000000  0.628349000000  0.000000000000  0.000000000000  0.000000000000
  0.000000000000  0.428044000000  0.000000000000  0.000000000000  0.000000000000
  0.000000000000  0.000000000000  1.000000000000  0.000000000000  0.000000000000
  0.000000000000  0.000000000000  0.000000000000  1.000000000000  0.000000000000
  0.000000000000  0.000000000000  0.000000000000  0.000000000000  1.000000000000
* d-type functions
    1    1
          0.55000000
  1.000000000000

/S.6-311G**.Francl.12s9p1d.6s5p1d.
M.M. Francl, W.J. Pietro, W.J. Hehre, J.S. Binkley, M.S. Gordon, D.J. DeFrees, J.A. Pople. J. Chem. Phys. 77 (1982) 3654-3665. doi:10.1063/1.444267
SULFUR (12s,9p,1d) -> [6s,5p,1d]
Options
Cartesian d
EndOptions
    16.0   2
* s-type functions
   12    6
      93413.40000000
      13961.70000000
       3169.91000000
        902.45600000
        297.15800000
        108.70200000
         43.15530000
         18.10790000
          5.56009000
          2.13183000
          0.42040300
          0.13604500
  0.000743000000  0.000000000000  0.000000000000  0.000000000000  0.000000000000  0.000000000000
  0.005793000000  0.000000000000  0.000000000000  0.000000000000  0.000000000000  0.000000000000
  0.029954000000  0.000000000000  0.000000000000  0.000000000000  0.000000000000  0.000000000000
  0.119028000000  0.000000000000  0.000000000000  0.000000000000  0.000000000000  0.000000000000
  0.368432000000  0.000000000000  0.000000000000  0.000000000000  0.000000000000  0.000000000000
  0.577299000000  0.143186000000  0.000000000000  0.000000000000  0.000000000000  0.000000000000
  0.000000000000  0.624465000000  0.000000000000  0.000000000000  0.000000000000  0.000000000000
  0.000000000000  0.283366000000  0.000000000000  0.000000000000  0.000000000000  0.000000000000
  0.000000000000  0.000000000000  1.000000000000  0.000000000000  0.000000000000  0.000000000000
  0.000000000000  0.000000000000  0.000000000000  1.000000000000  0.000000000000  0.000000000000
  0.000000000000  0.000000000000  0.000000000000  0.000000000000  1.000000000000  0.000000000000
  0.000000000000  0.000000000000  0.000000000000  0.000000000000  0.000000000000  1.000000000000
* p-type functions
    9    5
        495.04000000
        117.22100000
         37.77490000
         14.05840000
          5.56574000
          2.26297000
          0.80799400
          0.27746000
          0.07714100
  0.008309000000  0.000000000000  0.000000000000  0.000000000000  0.000000000000
  0.064024000000  0.000000000000  0.000000000000  0.000000000000  0.000000000000
  0.277614000000  0.000000000000  0.000000000000  0.000000000000  0.000000000000
  0.745076000000  0.000000000000  0.000000000000  0.000000000000  0.000000000000
  0.000000000000  0.613712000000  0.000000000000  0.000000000000  0.000000000000
  0.000000000000  0.443818000000  0.000000000000  0.000000000000  0.000000000000
  0.000000000000  0.000000000000  1.000000000000  0.000000000000  0.000000000000
  0.000000000000  0.000000000000  0.000000000000  1.000000000000  0.000000000000
  0.000000000000  0.000000000000  0.000000000000  0.000000000000  1.000000000000
* d-type functions
    1    1
          0.65000000
  1.000000000000

/Cl.6-311G**.Francl.12s9p1d.6s5p1d.
M.M. Francl, W.J. Pietro, W.J. Hehre, J.S. Binkley, M.S. Gordon, D.J. DeFrees, J.A. Pople. J. Chem. Phys. 77 (1982) 3654-3665. doi:10.1063/1.444267
CHLORINE (12s,9p,1d) -> [6s,5p,1d]
Options
Cartesian d
EndOptions
    17.0   2
* s-type functions
   12    6
     105819.00000000
      15872.00000000
       3619.65000000
       1030.80000000
        339.90800000
        124.53800000
         49.51350000
         20.80560000
          6.58346000
          2.56468000
          0.55976300
          0.18327300
  0.000738000000  0.000000000000  0.000000000000  0.000000000000  0.000000000000  0.000000000000
  0.005718000000  0.000000000000  0.000000000000  0.000000000000  0.000000000000  0.000000000000
  0.029495000000  0.000000000000  0.000000000000  0.000000000000  0.000000000000  0.000000000000
  0.117286000000  0.000000000000  0.000000000000  0.000000000000  0.000000000000  0.000000000000
  0.362949000000  0.000000000000  0.000000000000  0.000000000000  0.000000000000  0.000000000000
  0.584149000000  0.134177000000  0.000000000000  0.000000000000  0.000000000000  0.000000000000
  0.000000000000  0.624250000000  0.000000000000  0.000000000000  0.000000000000  0.000000000000
  0.000000000000  0.291756000000  0.000000000000  0.000000000000  0.000000000000  0.000000000000
  0.000000000000  0.000000000000  1.000000000000  0.000000000000  0.000000000000  0.000000000000
  0.000000000000  0.000000000000  0.000000000000  1.000000000000  0.000000000000  0.000000000000
  0.000000000000  0.000000000000  0.000000000000  0.000000000000  1.000000000000  0.000000000000
  0.000000000000  0.000000000000  0.000000000000  0.000000000000  0.000000000000  1.000000000000
* p-type functions
    9    5
        589.77600000
        139.84900000
         45.14130000
         16.87330000
          6.74110000
          2.77152000
          1.02387000
          0.38136800
          0.10943700
  0.002391000000  0.000000000000  0.000000000000  0.000000000000  0.000000000000
  0.018504000000  0.000000000000  0.000000000000  0.000000000000  0.000000000000
  0.081377000000  0.000000000000  0.000000000000  0.000000000000  0.000000000000
  0.221552000000  0.000000000000  0.000000000000  0.000000000000  0.000000000000
  0.772569000000 -1.572244000000  0.000000000000  0.000000000000  0.000000000000
  0.000000000000  0.992389000000  0.000000000000  0.000000000000  0.000000000000
  0.000000000000  0.000000000000  1.000000000000  0.000000000000  0.000000000000
  0.000000000000  0.000000000000  0.000000000000  1.000000000000  0.000000000000
  0.000000000000  0.000000000000  0.000000000000  0.000000000000  1.000000000000
* d-type functions
    1    1
          0.75000000
  1.000000000000

/Ar.6-311G**.Francl.12s9p1d.6s5p1d.
M.M. Francl, W.J. Pietro, W.J. Hehre, J.S. Binkley, M.S. Gordon, D.J. DeFrees, J.A. Pople. J. Chem. Phys. 77 (1982) 3654-3665. doi:10.1063/1.444267
ARGON (12s,9p,1d) -> [6s,5p,1d]
Options
Cartesian d
EndOptions
    18.0   2
* s-type functions
   12    6
     118022.38000000
      17683.54100000
       4027.76570000
       1145.39770000
        377.16375000
        138.15969000
         54.98911700
         23.17066700
          7.37786000
          2.92368800
          0.65040500
          0.23282500
  0.000747000000  0.000000000000  0.000000000000  0.000000000000  0.000000000000  0.000000000000
  0.005790000000  0.000000000000  0.000000000000  0.000000000000  0.000000000000  0.000000000000
  0.029919000000  0.000000000000  0.000000000000  0.000000000000  0.000000000000  0.000000000000
  0.119206000000  0.000000000000  0.000000000000  0.000000000000  0.000000000000  0.000000000000
  0.369028000000  0.000000000000  0.000000000000  0.000000000000  0.000000000000  0.000000000000
  0.576459000000  0.143927000000  0.000000000000  0.000000000000  0.000000000000  0.000000000000
  0.000000000000  0.622938000000  0.000000000000  0.000000000000  0.000000000000  0.000000000000
  0.000000000000  0.283964000000  0.000000000000  0.000000000000  0.000000000000  0.000000000000
  0.000000000000  0.000000000000  1.000000000000  0.000000000000  0.000000000000  0.000000000000
  0.000000000000  0.000000000000  0.000000000000  1.000000000000  0.000000000000  0.000000000000
  0.000000000000  0.000000000000  0.000000000000  0.000000000000  1.000000000000  0.000000000000
  0.000000000000  0.000000000000  0.000000000000  0.000000000000  0.000000000000  1.000000000000
* p-type functions
    9    5
        663.06201000
        157.09281000
         50.23110000
         18.63534500
          7.44653700
          3.09569800
          1.10646300
          0.41560100
          0.14544900
  0.003082000000  0.000000000000  0.000000000000  0.000000000000  0.000000000000
  0.024165000000  0.000000000000  0.000000000000  0.000000000000  0.000000000000
  0.108223000000  0.000000000000  0.000000000000  0.000000000000  0.000000000000
  0.294192000000  0.000000000000  0.000000000000  0.000000000000  0.000000000000
  0.687862000000 -0.121448200000  0.000000000000  0.000000000000  0.000000000000
  0.000000000000  0.163237000000  0.000000000000  0.000000000000  0.000000000000
  0.000000000000  0.000000000000  1.000000000000  0.000000000000  0.000000000000
  0.000000000000  0.000000000000  0.000000000000  1.000000000000  0.000000000000
  0.000000000000  0.000000000000  0.000000000000  0.000000000000  1.000000000000
* d-type functions
    1    1
          0.85000000
  1.000000000000

/K.6-311G**.Blaudeau.14s11p4d.8s7p2d.
J.-P. Blaudeau, M.P. McGrath, L.A. Curtiss, L. Radom. J. Chem. Phys. 107 (1997) 5016-5021. doi:10.1063/1.474865
POTASSIUM (14s,11p,4d) -> [8s,7p,2d]
    19.0   2
* s-type functions
   14    8
     182594.00000000
      27369.00000000
       6229.17000000
       1764.58000000
        577.05100000
        210.24900000
         82.61780000
         33.23320000
          8.10649000
          3.33403000
          0.84554400
          0.32821600
          0.03640350
          0.01764630
  0.000227747000  0.000000000000  0.000000000000  0.000000000000  0.000000000000  0.000000000000  0.000000000000  0.000000000000
  0.001766400000  0.000000000000  0.000000000000  0.000000000000  0.000000000000  0.000000000000  0.000000000000  0.000000000000
  0.009194970000  0.000000000000  0.000000000000  0.000000000000  0.000000000000  0.000000000000  0.000000000000  0.000000000000
  0.037455100000  0.000000000000  0.000000000000  0.000000000000  0.000000000000  0.000000000000  0.000000000000  0.000000000000
  0.122045000000  0.000000000000  0.000000000000  0.000000000000  0.000000000000  0.000000000000  0.000000000000  0.000000000000
  0.298990000000  0.000000000000  0.000000000000  0.000000000000  0.000000000000  0.000000000000  0.000000000000  0.000000000000
  0.000000000000  0.405147000000  0.000000000000  0.000000000000  0.000000000000  0.000000000000  0.000000000000  0.000000000000
  0.000000000000  0.292532000000  0.000000000000  0.000000000000  0.000000000000  0.000000000000  0.000000000000  0.000000000000
  0.000000000000  0.000000000000  1.000000000000  0.000000000000  0.000000000000  0.000000000000  0.000000000000  0.000000000000
  0.000000000000  0.000000000000  0.000000000000  1.000000000000  0.000000000000  0.000000000000  0.000000000000  0.000000000000
  0.000000000000  0.000000000000  0.000000000000  0.000000000000  1.000000000000  0.000000000000  0.000000000000  0.000000000000
  0.000000000000  0.000000000000  0.000000000000  0.000000000000  0.000000000000  1.000000000000  0.000000000000  0.000000000000
  0.000000000000  0.000000000000  0.000000000000  0.000000000000  0.000000000000  0.000000000000  1.000000000000  0.000000000000
  0.000000000000  0.000000000000  0.000000000000  0.000000000000  0.000000000000  0.000000000000  0.000000000000  1.000000000000
* p-type functions
   11    7
        891.05400000
        211.01600000
         67.67140000
         25.27150000
         10.13900000
          4.20186000
          1.62507000
          0.64377000
          0.24613000
          0.04544000
          0.01616000
  0.002184290000  0.000000000000  0.000000000000  0.000000000000  0.000000000000  0.000000000000  0.000000000000
  0.017589100000  0.000000000000  0.000000000000  0.000000000000  0.000000000000  0.000000000000  0.000000000000
  0.081777500000  0.000000000000  0.000000000000  0.000000000000  0.000000000000  0.000000000000  0.000000000000
  0.000000000000  0.245656000000  0.000000000000  0.000000000000  0.000000000000  0.000000000000  0.000000000000
  0.000000000000  0.433984000000  0.000000000000  0.000000000000  0.000000000000  0.000000000000  0.000000000000
  0.000000000000  0.362377000000  0.000000000000  0.000000000000  0.000000000000  0.000000000000  0.000000000000
  0.000000000000  0.000000000000  1.000000000000  0.000000000000  0.000000000000  0.000000000000  0.000000000000
  0.000000000000  0.000000000000  0.000000000000  1.000000000000  0.000000000000  0.000000000000  0.000000000000
  0.000000000000  0.000000000000  0.000000000000  0.000000000000  1.000000000000  0.000000000000  0.000000000000
  0.000000000000  0.000000000000  0.000000000000  0.000000000000  0.000000000000  1.000000000000  0.000000000000
  0.000000000000  0.000000000000  0.000000000000  0.000000000000  0.000000000000  0.000000000000  1.000000000000
* d-type functions
    4    2
         13.37000000
          3.42100000
          1.06300000
          0.22900000
  0.031601600000  0.000000000000
  0.156879000000  0.000000000000
  0.390582000000  0.000000000000
  0.000000000000  1.000000000000

/Ca.6-311G**.Blaudeau.14s11p4d.8s7p2d.
J.-P. Blaudeau, M.P. McGrath, L.A. Curtiss, L. Radom. J. Chem. Phys. 107 (1997) 5016-5021. doi:10.1063/1.474865
CALCIUM (14s,11p,4d) -> [8s,7p,2d]
    20.0   2
* s-type functions
   14    8
     202699.00000000
      30382.50000000
       6915.08000000
       1959.02000000
        640.93600000
        233.97700000
         92.28920000
         37.25450000
          9.13198000
          3.81779000
          1.04935000
          0.42866000
          0.06282260
          0.02601620
  0.000222964000  0.000000000000  0.000000000000  0.000000000000  0.000000000000  0.000000000000  0.000000000000  0.000000000000
  0.001729320000  0.000000000000  0.000000000000  0.000000000000  0.000000000000  0.000000000000  0.000000000000  0.000000000000
  0.009002260000  0.000000000000  0.000000000000  0.000000000000  0.000000000000  0.000000000000  0.000000000000  0.000000000000
  0.036669900000  0.000000000000  0.000000000000  0.000000000000  0.000000000000  0.000000000000  0.000000000000  0.000000000000
  0.119410000000  0.000000000000  0.000000000000  0.000000000000  0.000000000000  0.000000000000  0.000000000000  0.000000000000
  0.291825000000  0.000000000000  0.000000000000  0.000000000000  0.000000000000  0.000000000000  0.000000000000  0.000000000000
  0.000000000000  0.404415000000  0.000000000000  0.000000000000  0.000000000000  0.000000000000  0.000000000000  0.000000000000
  0.000000000000  0.296313000000  0.000000000000  0.000000000000  0.000000000000  0.000000000000  0.000000000000  0.000000000000
  0.000000000000  0.000000000000  1.000000000000  0.000000000000  0.000000000000  0.000000000000  0.000000000000  0.000000000000
  0.000000000000  0.000000000000  0.000000000000  1.000000000000  0.000000000000  0.000000000000  0.000000000000  0.000000000000
  0.000000000000  0.000000000000  0.000000000000  0.000000000000  1.000000000000  0.000000000000  0.000000000000  0.000000000000
  0.000000000000  0.000000000000  0.000000000000  0.000000000000  0.000000000000  1.000000000000  0.000000000000  0.000000000000
  0.000000000000  0.000000000000  0.000000000000  0.000000000000  0.000000000000  0.000000000000  1.000000000000  0.000000000000
  0.000000000000  0.000000000000  0.000000000000  0.000000000000  0.000000000000  0.000000000000  0.000000000000  1.000000000000
* p-type functions
   11    7
       1019.76000000
        241.59600000
         77.63700000
         29.11540000
         11.76260000
          4.92289000
          1.90645000
          0.73690000
          0.27642000
          0.06027000
          0.01791000
  0.002059860000  0.000000000000  0.000000000000  0.000000000000  0.000000000000  0.000000000000  0.000000000000
  0.016650100000  0.000000000000  0.000000000000  0.000000000000  0.000000000000  0.000000000000  0.000000000000
  0.077764600000  0.000000000000  0.000000000000  0.000000000000  0.000000000000  0.000000000000  0.000000000000
  0.000000000000  0.241806000000  0.000000000000  0.000000000000  0.000000000000  0.000000000000  0.000000000000
  0.000000000000  0.432578000000  0.000000000000  0.000000000000  0.000000000000  0.000000000000  0.000000000000
  0.000000000000  0.367325000000  0.000000000000  0.000000000000  0.000000000000  0.000000000000  0.000000000000
  0.000000000000  0.000000000000  1.000000000000  0.000000000000  0.000000000000  0.000000000000  0.000000000000
  0.000000000000  0.000000000000  0.000000000000  1.000000000000  0.000000000000  0.000000000000  0.000000000000
  0.000000000000  0.000000000000  0.000000000000  0.000000000000  1.000000000000  0.000000000000  0.000000000000
  0.000000000000  0.000000000000  0.000000000000  0.000000000000  0.000000000000  1.000000000000  0.000000000000
  0.000000000000  0.000000000000  0.000000000000  0.000000000000  0.000000000000  0.000000000000  1.000000000000
* d-type functions
    4    2
         15.08000000
          3.92600000
          1.23300000
          0.26000000
  0.036894700000  0.000000000000
  0.177820000000  0.000000000000
  0.425513000000  0.000000000000
  0.000000000000  1.000000000000

/Ga.6-311G**.Curtiss.14s12p6d.8s7p3d.
L.A. Curtiss, M.P. McGrath, J.-P. Blaudeau, N.E. Davis, R.C. Binning, L. Radom. J. Chem. Phys. 103 (1995) 6104-6113. doi:10.1063/1.470438
GALLIUM (14s,12p,6d) -> [8s,7p,3d]
    31.0   2
* s-type functions
   14    8
     333800.00000000
      50100.00000000
      11510.00000000
       3292.00000000
       1089.00000000
        401.00000000
        159.30000000
         67.59000000
         24.89000000
         10.68000000
          3.38600000
          1.33100000
          0.18530000
          0.06621000
  0.000838050000  0.000000000000  0.000000000000  0.000000000000  0.000000000000  0.000000000000  0.000000000000  0.000000000000
  0.006246600000  0.000000000000  0.000000000000  0.000000000000  0.000000000000  0.000000000000  0.000000000000  0.000000000000
  0.032028000000  0.000000000000  0.000000000000  0.000000000000  0.000000000000  0.000000000000  0.000000000000  0.000000000000
  0.127090000000  0.000000000000  0.000000000000  0.000000000000  0.000000000000  0.000000000000  0.000000000000  0.000000000000
  0.390920000000  0.000000000000  0.000000000000  0.000000000000  0.000000000000  0.000000000000  0.000000000000  0.000000000000
  0.546430000000  0.180780000000  0.000000000000  0.000000000000  0.000000000000  0.000000000000  0.000000000000  0.000000000000
  0.000000000000  0.622390000000  0.000000000000  0.000000000000  0.000000000000  0.000000000000  0.000000000000  0.000000000000
  0.000000000000  0.249530000000  0.000000000000  0.000000000000  0.000000000000  0.000000000000  0.000000000000  0.000000000000
  0.000000000000  0.000000000000  1.000000000000  0.000000000000  0.000000000000  0.000000000000  0.000000000000  0.000000000000
  0.000000000000  0.000000000000  0.000000000000  1.000000000000  0.000000000000  0.000000000000  0.000000000000  0.000000000000
  0.000000000000  0.000000000000  0.000000000000  0.000000000000  1.000000000000  0.000000000000  0.000000000000  0.000000000000
  0.000000000000  0.000000000000  0.000000000000  0.000000000000  0.000000000000  1.000000000000  0.000000000000  0.000000000000
  0.000000000000  0.000000000000  0.000000000000  0.000000000000  0.000000000000  0.000000000000  1.000000000000  0.000000000000
  0.000000000000  0.000000000000  0.000000000000  0.000000000000  0.000000000000  0.000000000000  0.000000000000  1.000000000000
* p-type functions
   12    7
       2181.00000000
        515.40000000
        164.80000000
         61.40000000
         24.98000000
         10.44000000
          5.58900000
          2.51700000
          1.05300000
          0.29150000
          0.12100000
          0.03990000
  0.022565000000  0.000000000000  0.000000000000  0.000000000000  0.000000000000  0.000000000000  0.000000000000
  0.183630000000  0.000000000000  0.000000000000  0.000000000000  0.000000000000  0.000000000000  0.000000000000
  0.859840000000  0.000000000000  0.000000000000  0.000000000000  0.000000000000  0.000000000000  0.000000000000
  0.000000000000  0.343450000000  0.000000000000  0.000000000000  0.000000000000  0.000000000000  0.000000000000
  0.000000000000  0.505610000000  0.000000000000  0.000000000000  0.000000000000  0.000000000000  0.000000000000
  0.000000000000  0.262240000000  0.064130000000  0.000000000000  0.000000000000  0.000000000000  0.000000000000
  0.000000000000  0.000000000000  0.378840000000  0.000000000000  0.000000000000  0.000000000000  0.000000000000
  0.000000000000  0.000000000000  0.616690000000  0.000000000000  0.000000000000  0.000000000000  0.000000000000
  0.000000000000  0.000000000000  0.000000000000  1.000000000000  0.000000000000  0.000000000000  0.000000000000
  0.000000000000  0.000000000000  0.000000000000  0.000000000000  1.000000000000  0.000000000000  0.000000000000
  0.000000000000  0.000000000000  0.000000000000  0.000000000000  0.000000000000  1.000000000000  0.000000000000
  0.000000000000  0.000000000000  0.000000000000  0.000000000000  0.000000000000  0.000000000000  1.000000000000
* d-type functions
    6    3
         67.14000000
         18.94000000
          6.42600000
          2.19000000
          0.67250000
          0.16900000
  0.030957000000  0.000000000000  0.000000000000
  0.174800000000  0.000000000000  0.000000000000
  0.443460000000  0.000000000000  0.000000000000
  0.567020000000  0.000000000000  0.000000000000
  0.000000000000  1.000000000000  0.000000000000
  0.000000000000  0.000000000000  1.000000000000

/Ge.6-311G**.Curtiss.14s12p6d.8s7p3d.
L.A. Curtiss, M.P. McGrath, J.-P. Blaudeau, N.E. Davis, R.C. Binning, L. Radom. J. Chem. Phys. 103 (1995) 6104-6113. doi:10.1063/1.470438
GERMANIUM (14s,12p,6d) -> [8s,7p,3d]
    32.0   2
* s-type functions
   14    8
     357500.00000000
      53670.00000000
      12300.00000000
       3512.00000000
       1161.00000000
        428.00000000
        170.00000000
         72.06000000
         26.69000000
         11.50000000
          3.74200000
          1.49900000
          0.22920000
          0.08675000
  0.000838980000  0.000000000000  0.000000000000  0.000000000000  0.000000000000  0.000000000000  0.000000000000  0.000000000000
  0.006263500000  0.000000000000  0.000000000000  0.000000000000  0.000000000000  0.000000000000  0.000000000000  0.000000000000
  0.032036000000  0.000000000000  0.000000000000  0.000000000000  0.000000000000  0.000000000000  0.000000000000  0.000000000000
  0.127510000000  0.000000000000  0.000000000000  0.000000000000  0.000000000000  0.000000000000  0.000000000000  0.000000000000
  0.391650000000  0.000000000000  0.000000000000  0.000000000000  0.000000000000  0.000000000000  0.000000000000  0.000000000000
  0.545280000000  0.181600000000  0.000000000000  0.000000000000  0.000000000000  0.000000000000  0.000000000000  0.000000000000
  0.000000000000  0.622480000000  0.000000000000  0.000000000000  0.000000000000  0.000000000000  0.000000000000  0.000000000000
  0.000000000000  0.248720000000  0.000000000000  0.000000000000  0.000000000000  0.000000000000  0.000000000000  0.000000000000
  0.000000000000  0.000000000000  1.000000000000  0.000000000000  0.000000000000  0.000000000000  0.000000000000  0.000000000000
  0.000000000000  0.000000000000  0.000000000000  1.000000000000  0.000000000000  0.000000000000  0.000000000000  0.000000000000
  0.000000000000  0.000000000000  0.000000000000  0.000000000000  1.000000000000  0.000000000000  0.000000000000  0.000000000000
  0.000000000000  0.000000000000  0.000000000000  0.000000000000  0.000000000000  1.000000000000  0.000000000000  0.000000000000
  0.000000000000  0.000000000000  0.000000000000  0.000000000000  0.000000000000  0.000000000000  1.000000000000  0.000000000000
  0.000000000000  0.000000000000  0.000000000000  0.000000000000  0.000000000000  0.000000000000  0.000000000000  1.000000000000
* p-type functions
   12    7
       2345.00000000
        554.20000000
        177.30000000
         66.13000000
         26.90000000
         11.26000000
          6.11600000
          2.81900000
          1.21100000
          0.35680000
          0.16210000
          0.06084000
  0.022514000000  0.000000000000  0.000000000000  0.000000000000  0.000000000000  0.000000000000  0.000000000000
  0.183350000000  0.000000000000  0.000000000000  0.000000000000  0.000000000000  0.000000000000  0.000000000000
  0.860030000000  0.000000000000  0.000000000000  0.000000000000  0.000000000000  0.000000000000  0.000000000000
  0.000000000000  0.343060000000  0.000000000000  0.000000000000  0.000000000000  0.000000000000  0.000000000000
  0.000000000000  0.506520000000  0.000000000000  0.000000000000  0.000000000000  0.000000000000  0.000000000000
  0.000000000000  0.261410000000  0.067246000000  0.000000000000  0.000000000000  0.000000000000  0.000000000000
  0.000000000000  0.000000000000  0.372380000000  0.000000000000  0.000000000000  0.000000000000  0.000000000000
  0.000000000000  0.000000000000  0.617630000000  0.000000000000  0.000000000000  0.000000000000  0.000000000000
  0.000000000000  0.000000000000  0.000000000000  1.000000000000  0.000000000000  0.000000000000  0.000000000000
  0.000000000000  0.000000000000  0.000000000000  0.000000000000  1.000000000000  0.000000000000  0.000000000000
  0.000000000000  0.000000000000  0.000000000000  0.000000000000  0.000000000000  1.000000000000  0.000000000000
  0.000000000000  0.000000000000  0.000000000000  0.000000000000  0.000000000000  0.000000000000  1.000000000000
* d-type functions
    6    3
         74.84000000
         21.23000000
          7.29700000
          2.54900000
          0.81650000
          0.22800000
  0.030390000000  0.000000000000  0.000000000000
  0.173190000000  0.000000000000  0.000000000000
  0.440900000000  0.000000000000  0.000000000000
  0.565320000000  0.000000000000  0.000000000000
  0.000000000000  1.000000000000  0.000000000000
  0.000000000000  0.000000000000  1.000000000000

/As.6-311G**.Curtiss.14s12p6d.8s7p3d.
L.A. Curtiss, M.P. McGrath, J.-P. Blaudeau, N.E. Davis, R.C. Binning, L. Radom. J. Chem. Phys. 103 (1995) 6104-6113. doi:10.1063/1.470438
ARSENIC (14s,12p,6d) -> [8s,7p,3d]
    33.0   2
* s-type functions
   14    8
     381200.00000000
      57240.00000000
      13110.00000000
       3743.00000000
       1238.00000000
        456.30000000
        181.40000000
         77.07000000
         28.57000000
         12.36000000
          4.11700000
          1.67800000
          0.27610000
          0.11050000
  0.000833270000  0.000000000000  0.000000000000  0.000000000000  0.000000000000  0.000000000000  0.000000000000  0.000000000000
  0.006219800000  0.000000000000  0.000000000000  0.000000000000  0.000000000000  0.000000000000  0.000000000000  0.000000000000
  0.032030000000  0.000000000000  0.000000000000  0.000000000000  0.000000000000  0.000000000000  0.000000000000  0.000000000000
  0.127290000000  0.000000000000  0.000000000000  0.000000000000  0.000000000000  0.000000000000  0.000000000000  0.000000000000
  0.391320000000  0.000000000000  0.000000000000  0.000000000000  0.000000000000  0.000000000000  0.000000000000  0.000000000000
  0.545810000000  0.180970000000  0.000000000000  0.000000000000  0.000000000000  0.000000000000  0.000000000000  0.000000000000
  0.000000000000  0.621800000000  0.000000000000  0.000000000000  0.000000000000  0.000000000000  0.000000000000  0.000000000000
  0.000000000000  0.249880000000  0.000000000000  0.000000000000  0.000000000000  0.000000000000  0.000000000000  0.000000000000
  0.000000000000  0.000000000000  1.000000000000  0.000000000000  0.000000000000  0.000000000000  0.000000000000  0.000000000000
  0.000000000000  0.000000000000  0.000000000000  1.000000000000  0.000000000000  0.000000000000  0.000000000000  0.000000000000
  0.000000000000  0.000000000000  0.000000000000  0.000000000000  1.000000000000  0.000000000000  0.000000000000  0.000000000000
  0.000000000000  0.000000000000  0.000000000000  0.000000000000  0.000000000000  1.000000000000  0.000000000000  0.000000000000
  0.000000000000  0.000000000000  0.000000000000  0.000000000000  0.000000000000  0.000000000000  1.000000000000  0.000000000000
  0.000000000000  0.000000000000  0.000000000000  0.000000000000  0.000000000000  0.000000000000  0.000000000000  1.000000000000
* p-type functions
   12    7
       2528.00000000
        597.30000000
        190.70000000
         70.96000000
         28.89000000
         12.13000000
          6.53300000
          3.02800000
          1.34400000
          0.58230000
          0.25580000
          0.08651000
  0.022271000000  0.000000000000  0.000000000000  0.000000000000  0.000000000000  0.000000000000  0.000000000000
  0.181990000000  0.000000000000  0.000000000000  0.000000000000  0.000000000000  0.000000000000  0.000000000000
  0.861330000000  0.000000000000  0.000000000000  0.000000000000  0.000000000000  0.000000000000  0.000000000000
  0.000000000000  0.343380000000  0.000000000000  0.000000000000  0.000000000000  0.000000000000  0.000000000000
  0.000000000000  0.505980000000  0.000000000000  0.000000000000  0.000000000000  0.000000000000  0.000000000000
  0.000000000000  0.261280000000  0.068536000000  0.000000000000  0.000000000000  0.000000000000  0.000000000000
  0.000000000000  0.000000000000  0.382820000000  0.000000000000  0.000000000000  0.000000000000  0.000000000000
  0.000000000000  0.000000000000  0.605990000000  0.000000000000  0.000000000000  0.000000000000  0.000000000000
  0.000000000000  0.000000000000  0.000000000000  1.000000000000  0.000000000000  0.000000000000  0.000000000000
  0.000000000000  0.000000000000  0.000000000000  0.000000000000  1.000000000000  0.000000000000  0.000000000000
  0.000000000000  0.000000000000  0.000000000000  0.000000000000  0.000000000000  1.000000000000  0.000000000000
  0.000000000000  0.000000000000  0.000000000000  0.000000000000  0.000000000000  0.000000000000  1.000000000000
* d-type functions
    6    3
         86.05000000
         24.49000000
          8.44200000
          2.98100000
          0.97900000
          0.26400000
  0.027989000000  0.000000000000  0.000000000000
  0.165020000000  0.000000000000  0.000000000000
  0.437360000000  0.000000000000  0.000000000000
  0.572550000000  0.000000000000  0.000000000000
  0.000000000000  1.000000000000  0.000000000000
  0.000000000000  0.000000000000  1.000000000000

/Se.6-311G**.Curtiss.14s12p6d.8s7p3d.
L.A. Curtiss, M.P. McGrath, J.-P. Blaudeau, N.E. Davis, R.C. Binning, L. Radom. J. Chem. Phys. 103 (1995) 6104-6113. doi:10.1063/1.470438
SELENIUM (14s,12p,6d) -> [8s,7p,3d]
    34.0   2
* s-type functions
   14    8
     405400.00000000
      60850.00000000
      13910.00000000
       3989.00000000
       1324.00000000
        487.00000000
        193.20000000
         82.19000000
         30.52000000
         13.25000000
          4.51000000
          1.86700000
          0.31900000
          0.11200000
  0.000831000000  0.000000000000  0.000000000000  0.000000000000  0.000000000000  0.000000000000  0.000000000000  0.000000000000
  0.006233100000  0.000000000000  0.000000000000  0.000000000000  0.000000000000  0.000000000000  0.000000000000  0.000000000000
  0.032071000000  0.000000000000  0.000000000000  0.000000000000  0.000000000000  0.000000000000  0.000000000000  0.000000000000
  0.126360000000  0.000000000000  0.000000000000  0.000000000000  0.000000000000  0.000000000000  0.000000000000  0.000000000000
  0.388990000000  0.000000000000  0.000000000000  0.000000000000  0.000000000000  0.000000000000  0.000000000000  0.000000000000
  0.548880000000  0.179630000000  0.000000000000  0.000000000000  0.000000000000  0.000000000000  0.000000000000  0.000000000000
  0.000000000000  0.622270000000  0.000000000000  0.000000000000  0.000000000000  0.000000000000  0.000000000000  0.000000000000
  0.000000000000  0.250670000000  0.000000000000  0.000000000000  0.000000000000  0.000000000000  0.000000000000  0.000000000000
  0.000000000000  0.000000000000  1.000000000000  0.000000000000  0.000000000000  0.000000000000  0.000000000000  0.000000000000
  0.000000000000  0.000000000000  0.000000000000  1.000000000000  0.000000000000  0.000000000000  0.000000000000  0.000000000000
  0.000000000000  0.000000000000  0.000000000000  0.000000000000  1.000000000000  0.000000000000  0.000000000000  0.000000000000
  0.000000000000  0.000000000000  0.000000000000  0.000000000000  0.000000000000  1.000000000000  0.000000000000  0.000000000000
  0.000000000000  0.000000000000  0.000000000000  0.000000000000  0.000000000000  0.000000000000  1.000000000000  0.000000000000
  0.000000000000  0.000000000000  0.000000000000  0.000000000000  0.000000000000  0.000000000000  0.000000000000  1.000000000000
* p-type functions
   12    7
       2706.00000000
        638.60000000
        203.80000000
         75.96000000
         31.02000000
         13.05000000
          6.98600000
          3.23400000
          1.47500000
          0.72750000
          0.28690000
          0.09679000
  0.022146000000  0.000000000000  0.000000000000  0.000000000000  0.000000000000  0.000000000000  0.000000000000
  0.181800000000  0.000000000000  0.000000000000  0.000000000000  0.000000000000  0.000000000000  0.000000000000
  0.861550000000  0.000000000000  0.000000000000  0.000000000000  0.000000000000  0.000000000000  0.000000000000
  0.000000000000  0.342430000000  0.000000000000  0.000000000000  0.000000000000  0.000000000000  0.000000000000
  0.000000000000  0.505410000000  0.000000000000  0.000000000000  0.000000000000  0.000000000000  0.000000000000
  0.000000000000  0.262370000000  0.070163000000  0.000000000000  0.000000000000  0.000000000000  0.000000000000
  0.000000000000  0.000000000000  0.384190000000  0.000000000000  0.000000000000  0.000000000000  0.000000000000
  0.000000000000  0.000000000000  0.603680000000  0.000000000000  0.000000000000  0.000000000000  0.000000000000
  0.000000000000  0.000000000000  0.000000000000  1.000000000000  0.000000000000  0.000000000000  0.000000000000
  0.000000000000  0.000000000000  0.000000000000  0.000000000000  1.000000000000  0.000000000000  0.000000000000
  0.000000000000  0.000000000000  0.000000000000  0.000000000000  0.000000000000  1.000000000000  0.000000000000
  0.000000000000  0.000000000000  0.000000000000  0.000000000000  0.000000000000  0.000000000000  1.000000000000
* d-type functions
    6    3
         99.01000000
         28.41000000
          9.86300000
          3.51400000
          1.17100000
          0.30500000
  0.025596000000  0.000000000000  0.000000000000
  0.154590000000  0.000000000000  0.000000000000
  0.428780000000  0.000000000000  0.000000000000
  0.586200000000  0.000000000000  0.000000000000
  0.000000000000  1.000000000000  0.000000000000
  0.000000000000  0.000000000000  1.000000000000

/Br.6-311G**.Curtiss.14s12p6d.8s7p3d.
L.A. Curtiss, M.P. McGrath, J.-P. Blaudeau, N.E. Davis, R.C. Binning, L. Radom. J. Chem. Phys. 103 (1995) 6104-6113. doi:10.1063/1.470438
BROMINE (14s,12p,6d) -> [8s,7p,3d]
    35.0   2
* s-type functions
   14    8
     439700.00000000
      66030.00000000
      15140.00000000
       4317.00000000
       1414.00000000
        523.90000000
        207.70000000
         86.54000000
         30.52000000
         12.98000000
          4.41200000
          1.86200000
          0.39320000
          0.14000000
  0.000813000000  0.000000000000  0.000000000000  0.000000000000  0.000000000000  0.000000000000  0.000000000000  0.000000000000
  0.006285000000  0.000000000000  0.000000000000  0.000000000000  0.000000000000  0.000000000000  0.000000000000  0.000000000000
  0.031920000000  0.000000000000  0.000000000000  0.000000000000  0.000000000000  0.000000000000  0.000000000000  0.000000000000
  0.128800000000  0.000000000000  0.000000000000  0.000000000000  0.000000000000  0.000000000000  0.000000000000  0.000000000000
  0.394600000000  0.000000000000  0.000000000000  0.000000000000  0.000000000000  0.000000000000  0.000000000000  0.000000000000
  0.541300000000  0.183100000000  0.000000000000  0.000000000000  0.000000000000  0.000000000000  0.000000000000  0.000000000000
  0.000000000000  0.617600000000  0.000000000000  0.000000000000  0.000000000000  0.000000000000  0.000000000000  0.000000000000
  0.000000000000  0.253800000000  0.000000000000  0.000000000000  0.000000000000  0.000000000000  0.000000000000  0.000000000000
  0.000000000000  0.000000000000  1.000000000000  0.000000000000  0.000000000000  0.000000000000  0.000000000000  0.000000000000
  0.000000000000  0.000000000000  0.000000000000  1.000000000000  0.000000000000  0.000000000000  0.000000000000  0.000000000000
  0.000000000000  0.000000000000  0.000000000000  0.000000000000  1.000000000000  0.000000000000  0.000000000000  0.000000000000
  0.000000000000  0.000000000000  0.000000000000  0.000000000000  0.000000000000  1.000000000000  0.000000000000  0.000000000000
  0.000000000000  0.000000000000  0.000000000000  0.000000000000  0.000000000000  0.000000000000  1.000000000000  0.000000000000
  0.000000000000  0.000000000000  0.000000000000  0.000000000000  0.000000000000  0.000000000000  0.000000000000  1.000000000000
* p-type functions
   12    7
       2957.00000000
        700.30000000
        224.60000000
         82.59000000
         33.19000000
         14.20000000
          7.43800000
          3.52600000
          1.59500000
          0.84620000
          0.31860000
          0.10960000
  0.022260000000  0.000000000000  0.000000000000  0.000000000000  0.000000000000  0.000000000000  0.000000000000
  0.180200000000  0.000000000000  0.000000000000  0.000000000000  0.000000000000  0.000000000000  0.000000000000
  0.862400000000  0.000000000000  0.000000000000  0.000000000000  0.000000000000  0.000000000000  0.000000000000
  0.000000000000  0.344000000000  0.000000000000  0.000000000000  0.000000000000  0.000000000000  0.000000000000
  0.000000000000  0.507100000000  0.000000000000  0.000000000000  0.000000000000  0.000000000000  0.000000000000
  0.000000000000  0.259000000000  0.079650000000  0.000000000000  0.000000000000  0.000000000000  0.000000000000
  0.000000000000  0.000000000000  0.373400000000  0.000000000000  0.000000000000  0.000000000000  0.000000000000
  0.000000000000  0.000000000000  0.604900000000  0.000000000000  0.000000000000  0.000000000000  0.000000000000
  0.000000000000  0.000000000000  0.000000000000  1.000000000000  0.000000000000  0.000000000000  0.000000000000
  0.000000000000  0.000000000000  0.000000000000  0.000000000000  1.000000000000  0.000000000000  0.000000000000
  0.000000000000  0.000000000000  0.000000000000  0.000000000000  0.000000000000  1.000000000000  0.000000000000
  0.000000000000  0.000000000000  0.000000000000  0.000000000000  0.000000000000  0.000000000000  1.000000000000
* d-type functions
    6    3
        134.80000000
         36.39000000
         12.16000000
          4.34100000
          1.53500000
          0.45100000
  0.018310000000  0.000000000000  0.000000000000
  0.135000000000  0.000000000000  0.000000000000
  0.426100000000  0.000000000000  0.000000000000
  0.604300000000  0.000000000000  0.000000000000
  0.000000000000  1.000000000000  0.000000000000
  0.000000000000  0.000000000000  1.000000000000

/Kr.6-311G**.Curtiss.14s12p6d.8s7p3d.
L.A. Curtiss, M.P. McGrath, J.-P. Blaudeau, N.E. Davis, R.C. Binning, L. Radom. J. Chem. Phys. 103 (1995) 6104-6113. doi:10.1063/1.470438
KRYPTON (14s,12p,6d) -> [8s,7p,3d]
    36.0   2
* s-type functions
   14    8
     456200.00000000
      68460.00000000
      15650.00000000
       4500.00000000
       1497.00000000
        550.50000000
        218.20000000
         92.97000000
         34.59000000
         15.12000000
          5.34600000
          2.27300000
          0.48410000
          0.18490000
  0.000811100000  0.000000000000  0.000000000000  0.000000000000  0.000000000000  0.000000000000  0.000000000000  0.000000000000
  0.006255200000  0.000000000000  0.000000000000  0.000000000000  0.000000000000  0.000000000000  0.000000000000  0.000000000000
  0.032022000000  0.000000000000  0.000000000000  0.000000000000  0.000000000000  0.000000000000  0.000000000000  0.000000000000
  0.125460000000  0.000000000000  0.000000000000  0.000000000000  0.000000000000  0.000000000000  0.000000000000  0.000000000000
  0.386660000000  0.000000000000  0.000000000000  0.000000000000  0.000000000000  0.000000000000  0.000000000000  0.000000000000
  0.551880000000  0.177110000000  0.000000000000  0.000000000000  0.000000000000  0.000000000000  0.000000000000  0.000000000000
  0.000000000000  0.622480000000  0.000000000000  0.000000000000  0.000000000000  0.000000000000  0.000000000000  0.000000000000
  0.000000000000  0.252790000000  0.000000000000  0.000000000000  0.000000000000  0.000000000000  0.000000000000  0.000000000000
  0.000000000000  0.000000000000  1.000000000000  0.000000000000  0.000000000000  0.000000000000  0.000000000000  0.000000000000
  0.000000000000  0.000000000000  0.000000000000  1.000000000000  0.000000000000  0.000000000000  0.000000000000  0.000000000000
  0.000000000000  0.000000000000  0.000000000000  0.000000000000  1.000000000000  0.000000000000  0.000000000000  0.000000000000
  0.000000000000  0.000000000000  0.000000000000  0.000000000000  0.000000000000  1.000000000000  0.000000000000  0.000000000000
  0.000000000000  0.000000000000  0.000000000000  0.000000000000  0.000000000000  0.000000000000  1.000000000000  0.000000000000
  0.000000000000  0.000000000000  0.000000000000  0.000000000000  0.000000000000  0.000000000000  0.000000000000  1.000000000000
* p-type functions
   12    7
       3074.00000000
        725.70000000
        231.50000000
         86.45000000
         35.55000000
         15.14000000
          8.03100000
          3.79900000
          1.84900000
          0.86760000
          0.33290000
          0.11990000
  0.021998000000  0.000000000000  0.000000000000  0.000000000000  0.000000000000  0.000000000000  0.000000000000
  0.181020000000  0.000000000000  0.000000000000  0.000000000000  0.000000000000  0.000000000000  0.000000000000
  0.862230000000  0.000000000000  0.000000000000  0.000000000000  0.000000000000  0.000000000000  0.000000000000
  0.000000000000  0.341550000000  0.000000000000  0.000000000000  0.000000000000  0.000000000000  0.000000000000
  0.000000000000  0.502550000000  0.000000000000  0.000000000000  0.000000000000  0.000000000000  0.000000000000
  0.000000000000  0.264530000000  0.071670000000  0.000000000000  0.000000000000  0.000000000000  0.000000000000
  0.000000000000  0.000000000000  0.397080000000  0.000000000000  0.000000000000  0.000000000000  0.000000000000
  0.000000000000  0.000000000000  0.587620000000  0.000000000000  0.000000000000  0.000000000000  0.000000000000
  0.000000000000  0.000000000000  0.000000000000  1.000000000000  0.000000000000  0.000000000000  0.000000000000
  0.000000000000  0.000000000000  0.000000000000  0.000000000000  1.000000000000  0.000000000000  0.000000000000
  0.000000000000  0.000000000000  0.000000000000  0.000000000000  0.000000000000  1.000000000000  0.000000000000
  0.000000000000  0.000000000000  0.000000000000  0.000000000000  0.000000000000  0.000000000000  1.000000000000
* d-type functions
    6    3
        122.50000000
         35.37000000
         12.39000000
          4.49600000
          1.54600000
          0.39500000
  0.023377000000  0.000000000000  0.000000000000
  0.146100000000  0.000000000000  0.000000000000
  0.422300000000  0.000000000000  0.000000000000
  0.594520000000  0.000000000000  0.000000000000
  0.000000000000  1.000000000000  0.000000000000
  0.000000000000  0.000000000000  1.000000000000

/I.6-311G**.Glukhovtsev.15s12p7d.10s9p5d.
M.N. Glukhovtsev, A. Pross, M.P. McGrath, L. Radom. J. Chem. Phys. 103 (1995) 1878-1885. doi:10.1063/1.469712
IODINE (15s,12p,7d) -> [10s,9p,5d]
    53.0   2
* s-type functions
   15   10
     444750.00000000
      66127.00000000
      14815.00000000
       4144.90000000
       1361.20000000
        508.44000000
        209.59000000
         81.95900000
         36.80500000
         13.49500000
          6.88590000
          2.55200000
          1.20880000
          0.27340000
          0.10090000
  0.000890000000  0.000000000000  0.000000000000  0.000000000000  0.000000000000  0.000000000000  0.000000000000  0.000000000000  0.000000000000  0.000000000000
  0.006940000000  0.000000000000  0.000000000000  0.000000000000  0.000000000000  0.000000000000  0.000000000000  0.000000000000  0.000000000000  0.000000000000
  0.036090000000  0.000000000000  0.000000000000  0.000000000000  0.000000000000  0.000000000000  0.000000000000  0.000000000000  0.000000000000  0.000000000000
  0.135680000000  0.000000000000  0.000000000000  0.000000000000  0.000000000000  0.000000000000  0.000000000000  0.000000000000  0.000000000000  0.000000000000
  0.338780000000  0.000000000000  0.000000000000  0.000000000000  0.000000000000  0.000000000000  0.000000000000  0.000000000000  0.000000000000  0.000000000000
  0.000000000000  0.436590000000  0.000000000000  0.000000000000  0.000000000000  0.000000000000  0.000000000000  0.000000000000  0.000000000000  0.000000000000
  0.000000000000  0.183750000000  0.000000000000  0.000000000000  0.000000000000  0.000000000000  0.000000000000  0.000000000000  0.000000000000  0.000000000000
  0.000000000000  0.000000000000  1.000000000000  0.000000000000  0.000000000000  0.000000000000  0.000000000000  0.000000000000  0.000000000000  0.000000000000
  0.000000000000  0.000000000000  0.000000000000  1.000000000000  0.000000000000  0.000000000000  0.000000000000  0.000000000000  0.000000000000  0.000000000000
  0.000000000000  0.000000000000  0.000000000000  0.000000000000  1.000000000000  0.000000000000  0.000000000000  0.000000000000  0.000000000000  0.000000000000
  0.000000000000  0.000000000000  0.000000000000  0.000000000000  0.000000000000  1.000000000000  0.000000000000  0.000000000000  0.000000000000  0.000000000000
  0.000000000000  0.000000000000  0.000000000000  0.000000000000  0.000000000000  0.000000000000  1.000000000000  0.000000000000  0.000000000000  0.000000000000
  0.000000000000  0.000000000000  0.000000000000  0.000000000000  0.000000000000  0.000000000000  0.000000000000  1.000000000000  0.000000000000  0.000000000000
  0.000000000000  0.000000000000  0.000000000000  0.000000000000  0.000000000000  0.000000000000  0.000000000000  0.000000000000  1.000000000000  0.000000000000
  0.000000000000  0.000000000000  0.000000000000  0.000000000000  0.000000000000  0.000000000000  0.000000000000  0.000000000000  0.000000000000  1.000000000000
* p-type functions
   12    9
       2953.60000000
        712.61000000
        236.71000000
         92.63100000
         39.73200000
         17.27300000
          7.95700000
          3.15290000
          1.33280000
          0.49470000
          0.21600000
          0.08293000
  0.012210000000  0.000000000000  0.000000000000  0.000000000000  0.000000000000  0.000000000000  0.000000000000  0.000000000000  0.000000000000
  0.085870000000  0.000000000000  0.000000000000  0.000000000000  0.000000000000  0.000000000000  0.000000000000  0.000000000000  0.000000000000
  0.294930000000  0.000000000000  0.000000000000  0.000000000000  0.000000000000  0.000000000000  0.000000000000  0.000000000000  0.000000000000
  0.478490000000  0.000000000000  0.000000000000  0.000000000000  0.000000000000  0.000000000000  0.000000000000  0.000000000000  0.000000000000
  0.000000000000  1.000000000000  0.000000000000  0.000000000000  0.000000000000  0.000000000000  0.000000000000  0.000000000000  0.000000000000
  0.000000000000  0.000000000000  1.000000000000  0.000000000000  0.000000000000  0.000000000000  0.000000000000  0.000000000000  0.000000000000
  0.000000000000  0.000000000000  0.000000000000  1.000000000000  0.000000000000  0.000000000000  0.000000000000  0.000000000000  0.000000000000
  0.000000000000  0.000000000000  0.000000000000  0.000000000000  1.000000000000  0.000000000000  0.000000000000  0.000000000000  0.000000000000
  0.000000000000  0.000000000000  0.000000000000  0.000000000000  0.000000000000  1.000000000000  0.000000000000  0.000000000000  0.000000000000
  0.000000000000  0.000000000000  0.000000000000  0.000000000000  0.000000000000  0.000000000000  1.000000000000  0.000000000000  0.000000000000
  0.000000000000  0.000000000000  0.000000000000  0.000000000000  0.000000000000  0.000000000000  0.000000000000  1.000000000000  0.000000000000
  0.000000000000  0.000000000000  0.000000000000  0.000000000000  0.000000000000  0.000000000000  0.000000000000  0.000000000000  1.000000000000
* d-type functions
    7    5
        261.95000000
         76.73400000
         27.55100000
         10.60600000
          3.42170000
          1.13700000
          0.30200000
  0.031440000000  0.000000000000  0.000000000000  0.000000000000  0.000000000000
  0.190280000000  0.000000000000  0.000000000000  0.000000000000  0.000000000000
  0.472470000000  0.000000000000  0.000000000000  0.000000000000  0.000000000000
  0.000000000000  1.000000000000  0.000000000000  0.000000000000  0.000000000000
  0.000000000000  0.000000000000  1.000000000000  0.000000000000  0.000000000000
  0.000000000000  0.000000000000  0.000000000000  1.000000000000  0.000000000000
  0.000000000000  0.000000000000  0.000000000000  0.000000000000  1.000000000000
