************************************************************************
* This file is part of OpenMolcas.                                     *
*                                                                      *
* OpenMolcas is free software; you can redistribute it and/or modify   *
* it under the terms of the GNU Lesser General Public License, v. 2.1. *
* OpenMolcas is distributed in the hope that it will be useful, but it *
* is provided "as is" and without any express or implied warranties.   *
* For more details see the full text of the license in the file        *
* LICENSE or in <http://www.gnu.org/licenses/>.                        *
************************************************************************

#Hamiltonian NRH
#Nucleus UNK
#Contraction SEG
#AllElectron AE_

************************************************************************
* This file has been generated from Basis Set Exchange data:           *
*   https://www.basissetexchange.org                                   *
* Version: 0  (Data from the original Basis Set Exchange)              *
************************************************************************

/H.Ahlrichs_VTZ.Schafer.5s.3s.
A. Schafer, H. Horn, R. Ahlrichs. J. Chem. Phys. 97 (1992) 2571-2577. doi:10.1063/1.463096
HYDROGEN (5s) -> [3s]
     1.0   0
* s-type functions
    5    3
       34.0613410000
        5.1235746000
        1.1646626000
        0.3272304100
        0.1030724100
   0.006025197800   0.000000000000   0.000000000000
   0.045021094000   0.000000000000   0.000000000000
   0.201897260000   0.000000000000   0.000000000000
   0.000000000000   1.000000000000   0.000000000000
   0.000000000000   0.000000000000   1.000000000000

/He.Ahlrichs_VTZ.Schafer.5s.3s.
A. Schafer, H. Horn, R. Ahlrichs. J. Chem. Phys. 97 (1992) 2571-2577. doi:10.1063/1.463096
HELIUM (5s) -> [3s]
     2.0   0
* s-type functions
    5    3
       98.0783216160
       14.7644042470
        3.3185831473
     8741.3869551e-4
     2445.9897208e-4
  75.803064967e-4   0.000000000000   0.000000000000
   0.054848620937   0.000000000000   0.000000000000
   0.220743821860   0.000000000000   0.000000000000
   0.000000000000   1.000000000000   0.000000000000
   0.000000000000   0.000000000000   1.000000000000

/Li.Ahlrichs_VTZ.Schafer.10s.6s.
A. Schafer, H. Horn, R. Ahlrichs. J. Chem. Phys. 97 (1992) 2571-2577. doi:10.1063/1.463096
LITHIUM (10s) -> [6s]
     3.0   0
* s-type functions
   10    6
     3341.4028812000
      500.9515931100
      114.0110310600
       32.2654730600
       10.4720585230
        3.6978284154
        1.3712085293
     5190.8459878e-4
     7453.2887051e-5
     2823.3600086e-5
  68.825734949e-5   0.000000000000   0.000000000000   0.000000000000   0.000000000000   0.000000000000
  53.296429956e-4   0.000000000000   0.000000000000   0.000000000000   0.000000000000   0.000000000000
   0.027564373644   0.000000000000   0.000000000000   0.000000000000   0.000000000000   0.000000000000
   0.109882425630   0.000000000000   0.000000000000   0.000000000000   0.000000000000   0.000000000000
   0.339430492450   0.000000000000   0.000000000000   0.000000000000   0.000000000000   0.000000000000
   0.000000000000   1.000000000000   0.000000000000   0.000000000000   0.000000000000   0.000000000000
   0.000000000000   0.000000000000   1.000000000000   0.000000000000   0.000000000000   0.000000000000
   0.000000000000   0.000000000000   0.000000000000   1.000000000000   0.000000000000   0.000000000000
   0.000000000000   0.000000000000   0.000000000000   0.000000000000   1.000000000000   0.000000000000
   0.000000000000   0.000000000000   0.000000000000   0.000000000000   0.000000000000   1.000000000000

/Be.Ahlrichs_VTZ.Schafer.10s.6s.
A. Schafer, H. Horn, R. Ahlrichs. J. Chem. Phys. 97 (1992) 2571-2577. doi:10.1063/1.463096
BERYLLIUM (10s) -> [6s]
     4.0   0
* s-type functions
   10    6
     6526.1477796000
      978.3549641700
      222.6586575600
       63.0130282810
       20.4687201820
        7.2692487387
        2.7393701115
        1.0615791118
     1815.8440185e-4
     5882.6820039e-5
  43.731739709e-5   0.000000000000   0.000000000000   0.000000000000   0.000000000000   0.000000000000
  33.882071951e-4   0.000000000000   0.000000000000   0.000000000000   0.000000000000   0.000000000000
   0.017563085078   0.000000000000   0.000000000000   0.000000000000   0.000000000000   0.000000000000
   0.070580481326   0.000000000000   0.000000000000   0.000000000000   0.000000000000   0.000000000000
   0.222638362340   0.000000000000   0.000000000000   0.000000000000   0.000000000000   0.000000000000
   0.000000000000   1.000000000000   0.000000000000   0.000000000000   0.000000000000   0.000000000000
   0.000000000000   0.000000000000   1.000000000000   0.000000000000   0.000000000000   0.000000000000
   0.000000000000   0.000000000000   0.000000000000   1.000000000000   0.000000000000   0.000000000000
   0.000000000000   0.000000000000   0.000000000000   0.000000000000   1.000000000000   0.000000000000
   0.000000000000   0.000000000000   0.000000000000   0.000000000000   0.000000000000   1.000000000000

/B.Ahlrichs_VTZ.Schafer.10s6p.6s3p.
A. Schafer, H. Horn, R. Ahlrichs. J. Chem. Phys. 97 (1992) 2571-2577. doi:10.1063/1.463096
BORON (10s,6p) -> [6s,3p]
     5.0   1
* s-type functions
   10    6
     5658.4992000000
      848.6970300000
      193.1365600000
       54.5863170000
       17.6001260000
        6.1269618000
        2.2245270000
        0.5565035200
        0.2387622900
        0.0857939550
   0.000552083270   0.000000000000   0.000000000000   0.000000000000   0.000000000000   0.000000000000
   0.004265142000   0.000000000000   0.000000000000   0.000000000000   0.000000000000   0.000000000000
   0.021853165000   0.000000000000   0.000000000000   0.000000000000   0.000000000000   0.000000000000
   0.084570678000   0.000000000000   0.000000000000   0.000000000000   0.000000000000   0.000000000000
   0.243047640000   0.000000000000   0.000000000000   0.000000000000   0.000000000000   0.000000000000
   0.000000000000   1.000000000000   0.000000000000   0.000000000000   0.000000000000   0.000000000000
   0.000000000000   0.000000000000   1.000000000000   0.000000000000   0.000000000000   0.000000000000
   0.000000000000   0.000000000000   0.000000000000   1.000000000000   0.000000000000   0.000000000000
   0.000000000000   0.000000000000   0.000000000000   0.000000000000   1.000000000000   0.000000000000
   0.000000000000   0.000000000000   0.000000000000   0.000000000000   0.000000000000   1.000000000000
* p-type functions
    6    3
       22.4558020000
        5.1030675000
        1.4984096000
        0.5098907300
        0.1819135000
        0.0648271830
  -0.005026062100   0.000000000000   0.000000000000
  -0.032826976000   0.000000000000   0.000000000000
  -0.131409410000   0.000000000000   0.000000000000
  -0.331252640000   0.000000000000   0.000000000000
   0.000000000000   1.000000000000   0.000000000000
   0.000000000000   0.000000000000   1.000000000000

/C.Ahlrichs_VTZ.Schafer.10s6p.6s3p.
A. Schafer, H. Horn, R. Ahlrichs. J. Chem. Phys. 97 (1992) 2571-2577. doi:10.1063/1.463096
CARBON (10s,6p) -> [6s,3p]
     6.0   1
* s-type functions
   10    6
     8506.0384000000
     1275.7329000000
      290.3118700000
       82.0562000000
       26.4796410000
        9.2414585000
        3.3643530000
        0.8717416400
        0.3635235200
        0.1287313500
   0.000533736640   0.000000000000   0.000000000000   0.000000000000   0.000000000000   0.000000000000
   0.004125023200   0.000000000000   0.000000000000   0.000000000000   0.000000000000   0.000000000000
   0.021171337000   0.000000000000   0.000000000000   0.000000000000   0.000000000000   0.000000000000
   0.082417860000   0.000000000000   0.000000000000   0.000000000000   0.000000000000   0.000000000000
   0.240128580000   0.000000000000   0.000000000000   0.000000000000   0.000000000000   0.000000000000
   0.000000000000   1.000000000000   0.000000000000   0.000000000000   0.000000000000   0.000000000000
   0.000000000000   0.000000000000   1.000000000000   0.000000000000   0.000000000000   0.000000000000
   0.000000000000   0.000000000000   0.000000000000   1.000000000000   0.000000000000   0.000000000000
   0.000000000000   0.000000000000   0.000000000000   0.000000000000   1.000000000000   0.000000000000
   0.000000000000   0.000000000000   0.000000000000   0.000000000000   0.000000000000   1.000000000000
* p-type functions
    6    3
       34.7094960000
        7.9590883000
        2.3786972000
        0.8154006500
        0.2895378500
        0.1008475400
   0.005330097400   0.000000000000   0.000000000000
   0.035865814000   0.000000000000   0.000000000000
   0.142002990000   0.000000000000   0.000000000000
   0.342031050000   0.000000000000   0.000000000000
   0.000000000000   1.000000000000   0.000000000000
   0.000000000000   0.000000000000   1.000000000000

/N.Ahlrichs_VTZ.Schafer.10s6p.6s3p.
A. Schafer, H. Horn, R. Ahlrichs. J. Chem. Phys. 97 (1992) 2571-2577. doi:10.1063/1.463096
NITROGEN (10s,6p) -> [6s,3p]
     7.0   1
* s-type functions
   10    6
    11913.4167560000
     1786.7213834000
      406.5901283400
      114.9252506500
       37.1058834220
       12.9716761980
        4.7302291164
        1.2525184258
     5126.0071231e-4
     1793.9714002e-4
 -52.297017365e-5   0.000000000000   0.000000000000   0.000000000000   0.000000000000   0.000000000000
 -40.428404036e-4   0.000000000000   0.000000000000   0.000000000000   0.000000000000   0.000000000000
  -0.020772715125   0.000000000000   0.000000000000   0.000000000000   0.000000000000   0.000000000000
  -0.081183137849   0.000000000000   0.000000000000   0.000000000000   0.000000000000   0.000000000000
  -0.238714973950   0.000000000000   0.000000000000   0.000000000000   0.000000000000   0.000000000000
   0.000000000000   1.000000000000   0.000000000000   0.000000000000   0.000000000000   0.000000000000
   0.000000000000   0.000000000000   1.000000000000   0.000000000000   0.000000000000   0.000000000000
   0.000000000000   0.000000000000   0.000000000000   1.000000000000   0.000000000000   0.000000000000
   0.000000000000   0.000000000000   0.000000000000   0.000000000000   1.000000000000   0.000000000000
   0.000000000000   0.000000000000   0.000000000000   0.000000000000   0.000000000000   1.000000000000
* p-type functions
    6    3
       49.2187583920
       11.3489353040
        3.4285088246
        1.1799512559
     4172.6122577e-4
        0.1429513128
  55.526953476e-4   0.000000000000   0.000000000000
   0.038054617957   0.000000000000   0.000000000000
   0.149414122420   0.000000000000   0.000000000000
   0.348981873680   0.000000000000   0.000000000000
   0.000000000000   1.000000000000   0.000000000000
   0.000000000000   0.000000000000   1.000000000000

/O.Ahlrichs_VTZ.Schafer.10s6p.6s3p.
A. Schafer, H. Horn, R. Ahlrichs. J. Chem. Phys. 97 (1992) 2571-2577. doi:10.1063/1.463096
OXYGEN (10s,6p) -> [6s,3p]
     8.0   1
* s-type functions
   10    6
    15902.6474590000
     2384.9537829000
      542.7195718200
      153.4040787400
       49.5457161400
       17.3396498970
        6.3303355272
        1.6995882201
     6895.4491271e-4
     2393.6028181e-4
  51.499803703e-5   0.000000000000   0.000000000000   0.000000000000   0.000000000000   0.000000000000
  39.819764428e-4   0.000000000000   0.000000000000   0.000000000000   0.000000000000   0.000000000000
   0.020476971922   0.000000000000   0.000000000000   0.000000000000   0.000000000000   0.000000000000
   0.080262367915   0.000000000000   0.000000000000   0.000000000000   0.000000000000   0.000000000000
   0.237668399470   0.000000000000   0.000000000000   0.000000000000   0.000000000000   0.000000000000
   0.000000000000   1.000000000000   0.000000000000   0.000000000000   0.000000000000   0.000000000000
   0.000000000000   0.000000000000   1.000000000000   0.000000000000   0.000000000000   0.000000000000
   0.000000000000   0.000000000000   0.000000000000   1.000000000000   0.000000000000   0.000000000000
   0.000000000000   0.000000000000   0.000000000000   0.000000000000   1.000000000000   0.000000000000
   0.000000000000   0.000000000000   0.000000000000   0.000000000000   0.000000000000   1.000000000000
* p-type functions
    6    3
       63.2705240110
       14.6233122950
        4.4489518003
        1.5281513180
        0.5299731587
     1750.9445998e-4
   0.006070920596   0.000000000000   0.000000000000
   0.041947688723   0.000000000000   0.000000000000
   0.161568839880   0.000000000000   0.000000000000
   0.356827792920   0.000000000000   0.000000000000
   0.000000000000   1.000000000000   0.000000000000
   0.000000000000   0.000000000000   1.000000000000

/F.Ahlrichs_VTZ.Schafer.10s6p.6s3p.
A. Schafer, H. Horn, R. Ahlrichs. J. Chem. Phys. 97 (1992) 2571-2577. doi:10.1063/1.463096
FLUORINE (10s,6p) -> [6s,3p]
     9.0   1
* s-type functions
   10    6
    20450.4890000000
     3066.9547000000
      697.9100300000
      197.2702000000
       63.7283430000
       22.3218090000
        8.1557609000
        2.2114295000
        0.8903856700
        0.3069660400
   0.000511034950   0.000000000000   0.000000000000   0.000000000000   0.000000000000   0.000000000000
   0.003951882000   0.000000000000   0.000000000000   0.000000000000   0.000000000000   0.000000000000
   0.020334553000   0.000000000000   0.000000000000   0.000000000000   0.000000000000   0.000000000000
   0.079876480000   0.000000000000   0.000000000000   0.000000000000   0.000000000000   0.000000000000
   0.237756010000   0.000000000000   0.000000000000   0.000000000000   0.000000000000   0.000000000000
   0.000000000000   1.000000000000   0.000000000000   0.000000000000   0.000000000000   0.000000000000
   0.000000000000   0.000000000000   1.000000000000   0.000000000000   0.000000000000   0.000000000000
   0.000000000000   0.000000000000   0.000000000000   1.000000000000   0.000000000000   0.000000000000
   0.000000000000   0.000000000000   0.000000000000   0.000000000000   1.000000000000   0.000000000000
   0.000000000000   0.000000000000   0.000000000000   0.000000000000   0.000000000000   1.000000000000
* p-type functions
    6    3
       80.2180200000
       18.5872810000
        5.6844581000
        1.9512781000
        0.6702411400
        0.2168225200
   0.006374446400   0.000000000000   0.000000000000
   0.044360191000   0.000000000000   0.000000000000
   0.168800380000   0.000000000000   0.000000000000
   0.361629790000   0.000000000000   0.000000000000
   0.000000000000   1.000000000000   0.000000000000
   0.000000000000   0.000000000000   1.000000000000

/Ne.Ahlrichs_VTZ.Schafer.10s6p.6s3p.
A. Schafer, H. Horn, R. Ahlrichs. J. Chem. Phys. 97 (1992) 2571-2577. doi:10.1063/1.463096
NEON (10s,6p) -> [6s,3p]
    10.0   1
* s-type functions
   10    6
    25558.3983200000
     3832.9404804000
      872.2107377700
      246.5375541400
       79.6583948640
       27.9197996460
       10.2071316640
        2.7883186671
        1.1153994748
     3823.4010539e-4
 -50.572691973e-5   0.000000000000   0.000000000000   0.000000000000   0.000000000000   0.000000000000
 -39.112485853e-4   0.000000000000   0.000000000000   0.000000000000   0.000000000000   0.000000000000
  -0.020134823525   0.000000000000   0.000000000000   0.000000000000   0.000000000000   0.000000000000
  -0.079223427275   0.000000000000   0.000000000000   0.000000000000   0.000000000000   0.000000000000
  -0.236757984790   0.000000000000   0.000000000000   0.000000000000   0.000000000000   0.000000000000
   0.000000000000   1.000000000000   0.000000000000   0.000000000000   0.000000000000   0.000000000000
   0.000000000000   0.000000000000   1.000000000000   0.000000000000   0.000000000000   0.000000000000
   0.000000000000   0.000000000000   0.000000000000   1.000000000000   0.000000000000   0.000000000000
   0.000000000000   0.000000000000   0.000000000000   0.000000000000   1.000000000000   0.000000000000
   0.000000000000   0.000000000000   0.000000000000   0.000000000000   0.000000000000   1.000000000000
* p-type functions
    6    3
       99.7609664310
       23.1676889530
        7.1133898669
        2.4418574365
     8344.2063174e-4
     2663.9881093e-4
  65.648661623e-4   0.000000000000   0.000000000000
   0.045958151534   0.000000000000   0.000000000000
   0.173499810250   0.000000000000   0.000000000000
   0.364860751500   0.000000000000   0.000000000000
   0.000000000000   1.000000000000   0.000000000000
   0.000000000000   0.000000000000   1.000000000000

/Na.Ahlrichs_VTZ.Schafer.12s6p.7s2p.
A. Schafer, H. Horn, R. Ahlrichs. J. Chem. Phys. 97 (1992) 2571-2577. doi:10.1063/1.463096
SODIUM (12s,6p) -> [7s,2p]
    11.0   1
* s-type functions
   12    7
    48876.1981470000
     7327.2863708000
     1667.4194652000
      471.5810119600
      152.9366981100
       54.3558554660
       20.7652228110
        8.3599495733
        2.1480945935
     6881.9414237e-4
     6047.7104119e-5
     2713.4094349e-5
  30.495709844e-5   0.000000000000   0.000000000000   0.000000000000   0.000000000000   0.000000000000   0.000000000000
   0.002363283260   0.000000000000   0.000000000000   0.000000000000   0.000000000000   0.000000000000   0.000000000000
   0.012268450799   0.000000000000   0.000000000000   0.000000000000   0.000000000000   0.000000000000   0.000000000000
   0.049625176611   0.000000000000   0.000000000000   0.000000000000   0.000000000000   0.000000000000   0.000000000000
   0.159495917750   0.000000000000   0.000000000000   0.000000000000   0.000000000000   0.000000000000   0.000000000000
   0.000000000000   1.000000000000   0.000000000000   0.000000000000   0.000000000000   0.000000000000   0.000000000000
   0.000000000000   0.000000000000   0.400720464280   0.000000000000   0.000000000000   0.000000000000   0.000000000000
   0.000000000000   0.000000000000   0.183373727110   0.000000000000   0.000000000000   0.000000000000   0.000000000000
   0.000000000000   0.000000000000   0.000000000000   1.000000000000   0.000000000000   0.000000000000   0.000000000000
   0.000000000000   0.000000000000   0.000000000000   0.000000000000   1.000000000000   0.000000000000   0.000000000000
   0.000000000000   0.000000000000   0.000000000000   0.000000000000   0.000000000000   1.000000000000   0.000000000000
   0.000000000000   0.000000000000   0.000000000000   0.000000000000   0.000000000000   0.000000000000   1.000000000000
* p-type functions
    6    2
      137.9625476100
       32.2091053610
        9.9746379096
        3.4780930022
        1.2284371548
     4173.1936406e-4
  59.264627843e-4   0.000000000000
   0.042543992714   0.000000000000
   0.166445348330   0.000000000000
   0.368149145290   0.000000000000
   0.457810352450   0.000000000000
   0.000000000000   1.000000000000

/Mg.Ahlrichs_VTZ.Schafer.12s6p.7s2p.
A. Schafer, H. Horn, R. Ahlrichs. J. Chem. Phys. 97 (1992) 2571-2577. doi:10.1063/1.463096
MAGNESIUM (12s,6p) -> [7s,2p]
    12.0   1
* s-type functions
   12    7
    58088.3497780000
     8708.1180998000
     1981.6224182000
      560.4398599700
      181.7297610800
       64.6033357290
       24.7421446700
       10.0246647160
        2.6947441296
        0.9114525192
     1068.9673012e-4
     4009.1617095e-5
  29.217969831e-5   0.000000000000   0.000000000000   0.000000000000   0.000000000000   0.000000000000   0.000000000000
  22.644236655e-4   0.000000000000   0.000000000000   0.000000000000   0.000000000000   0.000000000000   0.000000000000
   0.011756039870   0.000000000000   0.000000000000   0.000000000000   0.000000000000   0.000000000000   0.000000000000
   0.047569943176   0.000000000000   0.000000000000   0.000000000000   0.000000000000   0.000000000000   0.000000000000
   0.153080478970   0.000000000000   0.000000000000   0.000000000000   0.000000000000   0.000000000000   0.000000000000
   0.000000000000   1.000000000000   0.000000000000   0.000000000000   0.000000000000   0.000000000000   0.000000000000
   0.000000000000   0.000000000000   0.398835605960   0.000000000000   0.000000000000   0.000000000000   0.000000000000
   0.000000000000   0.000000000000   0.181888152120   0.000000000000   0.000000000000   0.000000000000   0.000000000000
   0.000000000000   0.000000000000   0.000000000000   1.000000000000   0.000000000000   0.000000000000   0.000000000000
   0.000000000000   0.000000000000   0.000000000000   0.000000000000   1.000000000000   0.000000000000   0.000000000000
   0.000000000000   0.000000000000   0.000000000000   0.000000000000   0.000000000000   1.000000000000   0.000000000000
   0.000000000000   0.000000000000   0.000000000000   0.000000000000   0.000000000000   0.000000000000   1.000000000000
* p-type functions
    6    2
      179.8337272400
       42.1130966640
       13.1173537750
        4.6229435410
        1.6685785801
        0.5854779723
  53.819769156e-4   0.000000000000
   0.039325751769   0.000000000000
   0.157490440590   0.000000000000
   0.359405608200   0.000000000000
   0.455162299850   0.000000000000
   0.000000000000   0.219704915880

/Al.Ahlrichs_VTZ.Schafer.12s9p.7s5p.
A. Schafer, H. Horn, R. Ahlrichs. J. Chem. Phys. 97 (1992) 2571-2577. doi:10.1063/1.463096
ALUMINIUM (12s,9p) -> [7s,5p]
    13.0   1
* s-type functions
   12    7
    68090.4116770000
    10207.5408220000
     2322.8045854000
      656.8865383800
      212.9669410400
       75.7247165850
       29.0763200240
       11.8596239340
        3.3162153181
        1.1754788791
        0.1752052855
     6475.8746484e-5
  28.412905423e-5   0.000000000000   0.000000000000   0.000000000000   0.000000000000   0.000000000000   0.000000000000
  22.020699743e-4   0.000000000000   0.000000000000   0.000000000000   0.000000000000   0.000000000000   0.000000000000
   0.011433443851   0.000000000000   0.000000000000   0.000000000000   0.000000000000   0.000000000000   0.000000000000
   0.046284585620   0.000000000000   0.000000000000   0.000000000000   0.000000000000   0.000000000000   0.000000000000
   0.149105657930   0.000000000000   0.000000000000   0.000000000000   0.000000000000   0.000000000000   0.000000000000
   0.000000000000   1.000000000000   0.000000000000   0.000000000000   0.000000000000   0.000000000000   0.000000000000
   0.000000000000   0.000000000000   0.416635181080   0.000000000000   0.000000000000   0.000000000000   0.000000000000
   0.000000000000   0.000000000000   0.189783713610   0.000000000000   0.000000000000   0.000000000000   0.000000000000
   0.000000000000   0.000000000000   0.000000000000   1.000000000000   0.000000000000   0.000000000000   0.000000000000
   0.000000000000   0.000000000000   0.000000000000   0.000000000000   1.000000000000   0.000000000000   0.000000000000
   0.000000000000   0.000000000000   0.000000000000   0.000000000000   0.000000000000   1.000000000000   0.000000000000
   0.000000000000   0.000000000000   0.000000000000   0.000000000000   0.000000000000   0.000000000000   1.000000000000
* p-type functions
    9    5
      442.7918258700
      104.7598883700
       33.3759794470
       12.3053879570
        4.8642475706
        1.9604027100
     7843.6733817e-4
     1901.4165079e-4
     5587.4372985e-5
   0.001639111843   0.000000000000   0.000000000000   0.000000000000   0.000000000000
   0.013143515460   0.000000000000   0.000000000000   0.000000000000   0.000000000000
   0.061497708063   0.000000000000   0.000000000000   0.000000000000   0.000000000000
   0.188259088510   0.000000000000   0.000000000000   0.000000000000   0.000000000000
   0.360626112020   0.000000000000   0.000000000000   0.000000000000   0.000000000000
   0.000000000000   1.000000000000   0.000000000000   0.000000000000   0.000000000000
   0.000000000000   0.000000000000   1.000000000000   0.000000000000   0.000000000000
   0.000000000000   0.000000000000   0.000000000000   1.000000000000   0.000000000000
   0.000000000000   0.000000000000   0.000000000000   0.000000000000   1.000000000000

/Si.Ahlrichs_VTZ.Schafer.12s9p.7s5p.
A. Schafer, H. Horn, R. Ahlrichs. J. Chem. Phys. 97 (1992) 2571-2577. doi:10.1063/1.463096
SILICON (12s,9p) -> [7s,5p]
    14.0   1
* s-type functions
   12    7
    79079.4340000000
    11855.0100000000
     2697.7051000000
      762.8722700000
      247.2845500000
       87.9312400000
       33.8232840000
       13.8681080000
        3.9920017000
        1.4659925000
        0.2527108600
        0.0924916730
   0.000264313860   0.000000000000   0.000000000000   0.000000000000   0.000000000000   0.000000000000   0.000000000000
   0.002048514300   0.000000000000   0.000000000000   0.000000000000   0.000000000000   0.000000000000   0.000000000000
   0.010637241000   0.000000000000   0.000000000000   0.000000000000   0.000000000000   0.000000000000   0.000000000000
   0.043082477000   0.000000000000   0.000000000000   0.000000000000   0.000000000000   0.000000000000   0.000000000000
   0.138982790000   0.000000000000   0.000000000000   0.000000000000   0.000000000000   0.000000000000   0.000000000000
   0.000000000000   1.000000000000   0.000000000000   0.000000000000   0.000000000000   0.000000000000   0.000000000000
   0.000000000000   0.000000000000   0.440715430000   0.000000000000   0.000000000000   0.000000000000   0.000000000000
   0.000000000000   0.000000000000   0.200911650000   0.000000000000   0.000000000000   0.000000000000   0.000000000000
   0.000000000000   0.000000000000   0.000000000000   1.000000000000   0.000000000000   0.000000000000   0.000000000000
   0.000000000000   0.000000000000   0.000000000000   0.000000000000   1.000000000000   0.000000000000   0.000000000000
   0.000000000000   0.000000000000   0.000000000000   0.000000000000   0.000000000000   1.000000000000   0.000000000000
   0.000000000000   0.000000000000   0.000000000000   0.000000000000   0.000000000000   0.000000000000   1.000000000000
* p-type functions
    9    5
      483.0235200000
      114.2508100000
       36.3877860000
       13.4117040000
        5.2884033000
        2.1374219000
        0.8646846300
        0.2548985500
        0.0793970310
   0.001916154700   0.000000000000   0.000000000000   0.000000000000   0.000000000000
   0.015309765000   0.000000000000   0.000000000000   0.000000000000   0.000000000000
   0.071094358000   0.000000000000   0.000000000000   0.000000000000   0.000000000000
   0.212432440000   0.000000000000   0.000000000000   0.000000000000   0.000000000000
   0.389763020000   0.000000000000   0.000000000000   0.000000000000   0.000000000000
   0.000000000000   1.000000000000   0.000000000000   0.000000000000   0.000000000000
   0.000000000000   0.000000000000   1.000000000000   0.000000000000   0.000000000000
   0.000000000000   0.000000000000   0.000000000000   1.000000000000   0.000000000000
   0.000000000000   0.000000000000   0.000000000000   0.000000000000   1.000000000000

/P.Ahlrichs_VTZ.Schafer.12s9p.7s5p.
A. Schafer, H. Horn, R. Ahlrichs. J. Chem. Phys. 97 (1992) 2571-2577. doi:10.1063/1.463096
PHOSPHORUS (12s,9p) -> [7s,5p]
    15.0   1
* s-type functions
   12    7
    91049.0495250000
    13649.2488640000
     3105.9432074000
      878.2598263000
      284.6339290700
      101.2061000500
       38.9778414240
       16.0484940730
        4.7225339088
        1.7825221852
        0.3396296788
     1233.3859847e-4
  25.380174651e-5   0.000000000000   0.000000000000   0.000000000000   0.000000000000   0.000000000000   0.000000000000
  19.671239007e-4   0.000000000000   0.000000000000   0.000000000000   0.000000000000   0.000000000000   0.000000000000
   0.010216063035   0.000000000000   0.000000000000   0.000000000000   0.000000000000   0.000000000000   0.000000000000
   0.041399162020   0.000000000000   0.000000000000   0.000000000000   0.000000000000   0.000000000000   0.000000000000
   0.133754149760   0.000000000000   0.000000000000   0.000000000000   0.000000000000   0.000000000000   0.000000000000
   0.000000000000   1.000000000000   0.000000000000   0.000000000000   0.000000000000   0.000000000000   0.000000000000
   0.000000000000   0.000000000000   0.454161130070   0.000000000000   0.000000000000   0.000000000000   0.000000000000
   0.000000000000   0.000000000000   0.207421980000   0.000000000000   0.000000000000   0.000000000000   0.000000000000
   0.000000000000   0.000000000000   0.000000000000   1.000000000000   0.000000000000   0.000000000000   0.000000000000
   0.000000000000   0.000000000000   0.000000000000   0.000000000000   1.000000000000   0.000000000000   0.000000000000
   0.000000000000   0.000000000000   0.000000000000   0.000000000000   0.000000000000   1.000000000000   0.000000000000
   0.000000000000   0.000000000000   0.000000000000   0.000000000000   0.000000000000   0.000000000000   1.000000000000
* p-type functions
    9    5
      528.4438932800
      124.9714995100
       39.7957092480
       14.6575449730
        5.7578892754
        2.3123200955
     8899.3780996e-4
        0.3046714991
     1007.8153964e-4
 -22.815190152e-4   0.000000000000   0.000000000000   0.000000000000   0.000000000000
  -0.018183642042   0.000000000000   0.000000000000   0.000000000000   0.000000000000
  -0.083940700526   0.000000000000   0.000000000000   0.000000000000   0.000000000000
  -0.246047138720   0.000000000000   0.000000000000   0.000000000000   0.000000000000
  -0.436556675310   0.000000000000   0.000000000000   0.000000000000   0.000000000000
   0.000000000000   1.000000000000   0.000000000000   0.000000000000   0.000000000000
   0.000000000000   0.000000000000   1.000000000000   0.000000000000   0.000000000000
   0.000000000000   0.000000000000   0.000000000000   1.000000000000   0.000000000000
   0.000000000000   0.000000000000   0.000000000000   0.000000000000   1.000000000000

/S.Ahlrichs_VTZ.Schafer.12s9p.7s5p.
A. Schafer, H. Horn, R. Ahlrichs. J. Chem. Phys. 97 (1992) 2571-2577. doi:10.1063/1.463096
SULFUR (12s,9p) -> [7s,5p]
    16.0   1
* s-type functions
   12    7
   103953.9500000000
    15583.7860000000
     3546.1293000000
     1002.6808000000
      324.9028800000
      115.5122500000
       44.5282100000
       18.3978920000
        5.5100683000
        2.1259867000
        0.4369189300
        0.1573085100
   0.000247427170   0.000000000000   0.000000000000   0.000000000000   0.000000000000   0.000000000000   0.000000000000
   0.001917768300   0.000000000000   0.000000000000   0.000000000000   0.000000000000   0.000000000000   0.000000000000
   0.009960999500   0.000000000000   0.000000000000   0.000000000000   0.000000000000   0.000000000000   0.000000000000
   0.040386429000   0.000000000000   0.000000000000   0.000000000000   0.000000000000   0.000000000000   0.000000000000
   0.130675230000   0.000000000000   0.000000000000   0.000000000000   0.000000000000   0.000000000000   0.000000000000
   0.000000000000   1.000000000000   0.000000000000   0.000000000000   0.000000000000   0.000000000000   0.000000000000
   0.000000000000   0.000000000000   0.504035510000   0.000000000000   0.000000000000   0.000000000000   0.000000000000
   0.000000000000   0.000000000000   0.230680510000   0.000000000000   0.000000000000   0.000000000000   0.000000000000
   0.000000000000   0.000000000000   0.000000000000   1.000000000000   0.000000000000   0.000000000000   0.000000000000
   0.000000000000   0.000000000000   0.000000000000   0.000000000000   1.000000000000   0.000000000000   0.000000000000
   0.000000000000   0.000000000000   0.000000000000   0.000000000000   0.000000000000   1.000000000000   0.000000000000
   0.000000000000   0.000000000000   0.000000000000   0.000000000000   0.000000000000   0.000000000000   1.000000000000
* p-type functions
    9    5
      606.6936700000
      143.5069600000
       45.7461600000
       16.8729120000
        6.6399196000
        2.6727135000
        1.0000089000
        0.3543894200
        0.1167130500
   0.002322964500   0.000000000000   0.000000000000   0.000000000000   0.000000000000
   0.018570532000   0.000000000000   0.000000000000   0.000000000000   0.000000000000
   0.086032740000   0.000000000000   0.000000000000   0.000000000000   0.000000000000
   0.252484310000   0.000000000000   0.000000000000   0.000000000000   0.000000000000
   0.446327420000   0.000000000000   0.000000000000   0.000000000000   0.000000000000
   0.000000000000   1.000000000000   0.000000000000   0.000000000000   0.000000000000
   0.000000000000   0.000000000000   1.000000000000   0.000000000000   0.000000000000
   0.000000000000   0.000000000000   0.000000000000   1.000000000000   0.000000000000
   0.000000000000   0.000000000000   0.000000000000   0.000000000000   1.000000000000

/Cl.Ahlrichs_VTZ.Schafer.12s9p.7s5p.
A. Schafer, H. Horn, R. Ahlrichs. J. Chem. Phys. 97 (1992) 2571-2577. doi:10.1063/1.463096
CHLORINE (12s,9p) -> [7s,5p]
    17.0   1
* s-type functions
   12    7
   117805.7900000000
    17660.2650000000
     4018.5973000000
     1136.2231000000
      368.1206200000
      130.8615400000
       50.4790110000
       20.9168050000
        6.3531388000
        2.4948014000
        0.5433594800
        0.1943436600
   0.000241807540   0.000000000000   0.000000000000   0.000000000000   0.000000000000   0.000000000000   0.000000000000
   0.001874268000   0.000000000000   0.000000000000   0.000000000000   0.000000000000   0.000000000000   0.000000000000
   0.009736293500   0.000000000000   0.000000000000   0.000000000000   0.000000000000   0.000000000000   0.000000000000
   0.039494746000   0.000000000000   0.000000000000   0.000000000000   0.000000000000   0.000000000000   0.000000000000
   0.127971660000   0.000000000000   0.000000000000   0.000000000000   0.000000000000   0.000000000000   0.000000000000
   0.000000000000   1.000000000000   0.000000000000   0.000000000000   0.000000000000   0.000000000000   0.000000000000
   0.000000000000   0.000000000000   0.428740940000   0.000000000000   0.000000000000   0.000000000000   0.000000000000
   0.000000000000   0.000000000000   0.196684930000   0.000000000000   0.000000000000   0.000000000000   0.000000000000
   0.000000000000   0.000000000000   0.000000000000   1.000000000000   0.000000000000   0.000000000000   0.000000000000
   0.000000000000   0.000000000000   0.000000000000   0.000000000000   1.000000000000   0.000000000000   0.000000000000
   0.000000000000   0.000000000000   0.000000000000   0.000000000000   0.000000000000   1.000000000000   0.000000000000
   0.000000000000   0.000000000000   0.000000000000   0.000000000000   0.000000000000   0.000000000000   1.000000000000
* p-type functions
    9    5
      681.0687900000
      161.1135900000
       51.3866370000
       18.9585120000
        3.0035158000
        7.4565293000
        1.0609361000
        0.3945202300
        0.1332327900
   0.002365893000   0.000000000000   0.000000000000   0.000000000000   0.000000000000
   0.018940717000   0.000000000000   0.000000000000   0.000000000000   0.000000000000
   0.087845134000   0.000000000000   0.000000000000   0.000000000000   0.000000000000
   0.257074350000   0.000000000000   0.000000000000   0.000000000000   0.000000000000
   0.371523610000   0.000000000000   0.000000000000   0.000000000000   0.000000000000
   0.000000000000   1.000000000000   0.000000000000   0.000000000000   0.000000000000
   0.000000000000   0.000000000000   1.000000000000   0.000000000000   0.000000000000
   0.000000000000   0.000000000000   0.000000000000   1.000000000000   0.000000000000
   0.000000000000   0.000000000000   0.000000000000   0.000000000000   1.000000000000

/Ar.Ahlrichs_VTZ.Schafer.12s9p.7s5p.
A. Schafer, H. Horn, R. Ahlrichs. J. Chem. Phys. 97 (1992) 2571-2577. doi:10.1063/1.463096
ARGON (12s,9p) -> [7s,5p]
    18.0   1
* s-type functions
   12    7
   132594.7425500000
    19877.2100510000
     4523.0525989000
     1278.8031045000
      414.2561894000
      147.2419411000
       56.8261553810
       23.6040859760
        7.2524952042
        2.8892979871
     6588.7982702e-4
     2343.9561082e-4
  25.484115161e-5   0.000000000000   0.000000000000   0.000000000000   0.000000000000   0.000000000000   0.000000000000
   0.001975334879   0.000000000000   0.000000000000   0.000000000000   0.000000000000   0.000000000000   0.000000000000
   0.010262456947   0.000000000000   0.000000000000   0.000000000000   0.000000000000   0.000000000000   0.000000000000
   0.041648674748   0.000000000000   0.000000000000   0.000000000000   0.000000000000   0.000000000000   0.000000000000
   0.135133770500   0.000000000000   0.000000000000   0.000000000000   0.000000000000   0.000000000000   0.000000000000
   0.000000000000   1.000000000000   0.000000000000   0.000000000000   0.000000000000   0.000000000000   0.000000000000
   0.000000000000   0.000000000000   0.451416328810   0.000000000000   0.000000000000   0.000000000000   0.000000000000
   0.000000000000   0.000000000000   0.207588324180   0.000000000000   0.000000000000   0.000000000000   0.000000000000
   0.000000000000   0.000000000000   0.000000000000   1.000000000000   0.000000000000   0.000000000000   0.000000000000
   0.000000000000   0.000000000000   0.000000000000   0.000000000000   1.000000000000   0.000000000000   0.000000000000
   0.000000000000   0.000000000000   0.000000000000   0.000000000000   0.000000000000   1.000000000000   0.000000000000
   0.000000000000   0.000000000000   0.000000000000   0.000000000000   0.000000000000   0.000000000000   1.000000000000
* p-type functions
    9    5
      828.3396980400
      196.0651075800
       62.6812275850
       23.2250778440
        9.2167815494
        3.7595532955
        1.4316785909
     5129.8266102e-4
     1682.1486947e-4
  21.773039337e-4   0.000000000000   0.000000000000   0.000000000000   0.000000000000
   0.017597443242   0.000000000000   0.000000000000   0.000000000000   0.000000000000
   0.082905921393   0.000000000000   0.000000000000   0.000000000000   0.000000000000
   0.249341029210   0.000000000000   0.000000000000   0.000000000000   0.000000000000
   0.453272806380   0.000000000000   0.000000000000   0.000000000000   0.000000000000
   0.000000000000   1.000000000000   0.000000000000   0.000000000000   0.000000000000
   0.000000000000   0.000000000000   1.000000000000   0.000000000000   0.000000000000
   0.000000000000   0.000000000000   0.000000000000   1.000000000000   0.000000000000
   0.000000000000   0.000000000000   0.000000000000   0.000000000000   1.000000000000

/K.Ahlrichs_VTZ.Schafer.14s9p.8s5p.
A. Schafer, H. Horn, R. Ahlrichs. J. Chem. Phys. 97 (1992) 2571-2577. doi:10.1063/1.463096
POTASSIUM (14s,9p) -> [8s,5p]
    19.0   1
* s-type functions
   14    8
   182594.2732400000
    27369.0049860000
     6229.1737971000
     1764.5823486000
      577.0512058800
      210.2493336400
       82.6178306410
       33.2331845220
        8.1064902102
        3.3340258818
     8455.4422261e-4
     3282.1626529e-4
     3640.3528487e-5
     1764.6286458e-5
  -2.277473593e-4   0.000000000000   0.000000000000   0.000000000000   0.000000000000   0.000000000000   0.000000000000   0.000000000000
 -17.663987129e-4   0.000000000000   0.000000000000   0.000000000000   0.000000000000   0.000000000000   0.000000000000   0.000000000000
 -91.949712091e-4   0.000000000000   0.000000000000   0.000000000000   0.000000000000   0.000000000000   0.000000000000   0.000000000000
  -0.037455084336   0.000000000000   0.000000000000   0.000000000000   0.000000000000   0.000000000000   0.000000000000   0.000000000000
  -0.122044544370   0.000000000000   0.000000000000   0.000000000000   0.000000000000   0.000000000000   0.000000000000   0.000000000000
  -0.298989720790   0.000000000000   0.000000000000   0.000000000000   0.000000000000   0.000000000000   0.000000000000   0.000000000000
   0.000000000000  -0.405146970260   0.000000000000   0.000000000000   0.000000000000   0.000000000000   0.000000000000   0.000000000000
   0.000000000000  -0.292531514290   0.000000000000   0.000000000000   0.000000000000   0.000000000000   0.000000000000   0.000000000000
   0.000000000000   0.000000000000   1.000000000000   0.000000000000   0.000000000000   0.000000000000   0.000000000000   0.000000000000
   0.000000000000   0.000000000000   0.000000000000   1.000000000000   0.000000000000   0.000000000000   0.000000000000   0.000000000000
   0.000000000000   0.000000000000   0.000000000000   0.000000000000   1.000000000000   0.000000000000   0.000000000000   0.000000000000
   0.000000000000   0.000000000000   0.000000000000   0.000000000000   0.000000000000   1.000000000000   0.000000000000   0.000000000000
   0.000000000000   0.000000000000   0.000000000000   0.000000000000   0.000000000000   0.000000000000   1.000000000000   0.000000000000
   0.000000000000   0.000000000000   0.000000000000   0.000000000000   0.000000000000   0.000000000000   0.000000000000   1.000000000000
* p-type functions
    9    5
      891.0544687200
      211.0158199600
       67.6714123780
       25.2714881000
       10.1389589690
        4.2018627167
        1.6029467214
     6146.1253051e-4
     2219.9300786e-4
  21.842914244e-4   0.000000000000   0.000000000000   0.000000000000   0.000000000000
   0.017589110824   0.000000000000   0.000000000000   0.000000000000   0.000000000000
   0.081777473118   0.000000000000   0.000000000000   0.000000000000   0.000000000000
   0.000000000000   0.245656318840   0.000000000000   0.000000000000   0.000000000000
   0.000000000000   0.433983768910   0.000000000000   0.000000000000   0.000000000000
   0.000000000000   0.362376649390   0.000000000000   0.000000000000   0.000000000000
   0.000000000000   0.000000000000   1.000000000000   0.000000000000   0.000000000000
   0.000000000000   0.000000000000   0.000000000000   1.000000000000   0.000000000000
   0.000000000000   0.000000000000   0.000000000000   0.000000000000   1.000000000000

/Ca.Ahlrichs_VTZ.Schafer.14s9p.8s5p.
A. Schafer, H. Horn, R. Ahlrichs. J. Chem. Phys. 97 (1992) 2571-2577. doi:10.1063/1.463096
CALCIUM (14s,9p) -> [8s,5p]
    20.0   1
* s-type functions
   14    8
   202698.9551900000
    30382.4659150000
     6915.0833150000
     1959.0210984000
      640.9360207500
      233.9769683600
       92.2891983120
       37.2544799060
        9.1319843289
        3.8177857927
        1.0493475069
     4286.5991519e-4
      628.2263898e-4
     2601.6237865e-5
  22.296378333e-5   0.000000000000   0.000000000000   0.000000000000   0.000000000000   0.000000000000   0.000000000000   0.000000000000
  17.293186572e-4   0.000000000000   0.000000000000   0.000000000000   0.000000000000   0.000000000000   0.000000000000   0.000000000000
  90.022631781e-4   0.000000000000   0.000000000000   0.000000000000   0.000000000000   0.000000000000   0.000000000000   0.000000000000
   0.036669888420   0.000000000000   0.000000000000   0.000000000000   0.000000000000   0.000000000000   0.000000000000   0.000000000000
   0.119409872100   0.000000000000   0.000000000000   0.000000000000   0.000000000000   0.000000000000   0.000000000000   0.000000000000
   0.291825260710   0.000000000000   0.000000000000   0.000000000000   0.000000000000   0.000000000000   0.000000000000   0.000000000000
   0.000000000000   0.404415279910   0.000000000000   0.000000000000   0.000000000000   0.000000000000   0.000000000000   0.000000000000
   0.000000000000   0.296312888550   0.000000000000   0.000000000000   0.000000000000   0.000000000000   0.000000000000   0.000000000000
   0.000000000000   0.000000000000   1.000000000000   0.000000000000   0.000000000000   0.000000000000   0.000000000000   0.000000000000
   0.000000000000   0.000000000000   0.000000000000   1.000000000000   0.000000000000   0.000000000000   0.000000000000   0.000000000000
   0.000000000000   0.000000000000   0.000000000000   0.000000000000   1.000000000000   0.000000000000   0.000000000000   0.000000000000
   0.000000000000   0.000000000000   0.000000000000   0.000000000000   0.000000000000   1.000000000000   0.000000000000   0.000000000000
   0.000000000000   0.000000000000   0.000000000000   0.000000000000   0.000000000000   0.000000000000   1.000000000000   0.000000000000
   0.000000000000   0.000000000000   0.000000000000   0.000000000000   0.000000000000   0.000000000000   0.000000000000   1.000000000000
* p-type functions
    9    5
     1019.7607638000
      241.5963075900
       77.6370120840
       29.1154194250
       11.7625935910
        4.9228924219
        1.9223257245
     7579.6196942e-4
     2843.0199095e-4
 -20.598575277e-4   0.000000000000   0.000000000000   0.000000000000   0.000000000000
  -0.016650079815   0.000000000000   0.000000000000   0.000000000000   0.000000000000
  -0.077764602312   0.000000000000   0.000000000000   0.000000000000   0.000000000000
   0.000000000000  -0.241805612370   0.000000000000   0.000000000000   0.000000000000
   0.000000000000  -0.432577986820   0.000000000000   0.000000000000   0.000000000000
   0.000000000000  -0.367324815360   0.000000000000   0.000000000000   0.000000000000
   0.000000000000   0.000000000000   1.000000000000   0.000000000000   0.000000000000
   0.000000000000   0.000000000000   0.000000000000   1.000000000000   0.000000000000
   0.000000000000   0.000000000000   0.000000000000   0.000000000000   1.000000000000

/Sc.Ahlrichs_VTZ.Schafer.14s9p5d.8s5p3d.
A. Schafer, H. Horn, R. Ahlrichs. J. Chem. Phys. 97 (1992) 2571-2577. doi:10.1063/1.463096
SCANDIUM (14s,9p,5d) -> [8s,5p,3d]
    21.0   2
* s-type functions
   14    8
   224356.9429700000
    33628.7060600000
     7654.0171483000
     2168.4396566000
      709.6266385700
      259.3173132700
      102.4780375800
       41.4431396910
       10.2018556240
        4.3044982698
        1.2219457424
     4972.5181441e-4
     7272.8077521e-5
     2939.3829275e-5
  21.995956274e-5   0.000000000000   0.000000000000   0.000000000000   0.000000000000   0.000000000000   0.000000000000   0.000000000000
  17.060418888e-4   0.000000000000   0.000000000000   0.000000000000   0.000000000000   0.000000000000   0.000000000000   0.000000000000
  88.815294669e-4   0.000000000000   0.000000000000   0.000000000000   0.000000000000   0.000000000000   0.000000000000   0.000000000000
   0.036183704997   0.000000000000   0.000000000000   0.000000000000   0.000000000000   0.000000000000   0.000000000000   0.000000000000
   0.117839267520   0.000000000000   0.000000000000   0.000000000000   0.000000000000   0.000000000000   0.000000000000   0.000000000000
   0.287916451410   0.000000000000   0.000000000000   0.000000000000   0.000000000000   0.000000000000   0.000000000000   0.000000000000
   0.000000000000   0.367051387170   0.000000000000   0.000000000000   0.000000000000   0.000000000000   0.000000000000   0.000000000000
   0.000000000000   0.271619959060   0.000000000000   0.000000000000   0.000000000000   0.000000000000   0.000000000000   0.000000000000
   0.000000000000   0.000000000000   1.000000000000   0.000000000000   0.000000000000   0.000000000000   0.000000000000   0.000000000000
   0.000000000000   0.000000000000   0.000000000000   1.000000000000   0.000000000000   0.000000000000   0.000000000000   0.000000000000
   0.000000000000   0.000000000000   0.000000000000   0.000000000000   1.000000000000   0.000000000000   0.000000000000   0.000000000000
   0.000000000000   0.000000000000   0.000000000000   0.000000000000   0.000000000000   1.000000000000   0.000000000000   0.000000000000
   0.000000000000   0.000000000000   0.000000000000   0.000000000000   0.000000000000   0.000000000000   1.000000000000   0.000000000000
   0.000000000000   0.000000000000   0.000000000000   0.000000000000   0.000000000000   0.000000000000   0.000000000000   1.000000000000
* p-type functions
    9    5
     1154.9909592000
      273.7049661200
       88.0693273110
       33.1107600260
       13.4364407510
        5.6580984638
        2.2436704314
     8879.8004276e-4
     3328.2409733e-4
  20.102722718e-4   0.000000000000   0.000000000000   0.000000000000   0.000000000000
   0.016305069846   0.000000000000   0.000000000000   0.000000000000   0.000000000000
   0.076527889024   0.000000000000   0.000000000000   0.000000000000   0.000000000000
   0.000000000000   0.239509040390   0.000000000000   0.000000000000   0.000000000000
   0.000000000000   0.432353802270   0.000000000000   0.000000000000   0.000000000000
   0.000000000000   0.369694293920   0.000000000000   0.000000000000   0.000000000000
   0.000000000000   0.000000000000   1.000000000000   0.000000000000   0.000000000000
   0.000000000000   0.000000000000   0.000000000000   1.000000000000   0.000000000000
   0.000000000000   0.000000000000   0.000000000000   0.000000000000   1.000000000000
* d-type functions
    5    3
       19.2385240380
        5.1173305876
        1.6549883906
     5401.7604591e-4
     1621.0625295e-4
   0.027054664721   0.000000000000   0.000000000000
   0.138132499670   0.000000000000   0.000000000000
   0.348953030190   0.000000000000   0.000000000000
   0.000000000000   1.000000000000   0.000000000000
   0.000000000000   0.000000000000   1.000000000000

/Ti.Ahlrichs_VTZ.Schafer.14s9p5d.8s5p3d.
A. Schafer, H. Horn, R. Ahlrichs. J. Chem. Phys. 97 (1992) 2571-2577. doi:10.1063/1.463096
TITANIUM (14s,9p,5d) -> [8s,5p,3d]
    22.0   2
* s-type functions
   14    8
   247254.2047200000
    37060.7475770000
     8435.1700312000
     2389.8299020000
      782.2311987000
      286.0677640600
      113.2064433000
       45.8457203900
       11.3285248130
        4.8125219381
        1.3957658690
     5632.7895193e-4
     8051.2959315e-5
     3192.6457804e-5
 -22.396329076e-5   0.000000000000   0.000000000000   0.000000000000   0.000000000000   0.000000000000   0.000000000000   0.000000000000
 -17.371198985e-4   0.000000000000   0.000000000000   0.000000000000   0.000000000000   0.000000000000   0.000000000000   0.000000000000
 -90.439019438e-4   0.000000000000   0.000000000000   0.000000000000   0.000000000000   0.000000000000   0.000000000000   0.000000000000
  -0.036850817255   0.000000000000   0.000000000000   0.000000000000   0.000000000000   0.000000000000   0.000000000000   0.000000000000
  -0.120042077150   0.000000000000   0.000000000000   0.000000000000   0.000000000000   0.000000000000   0.000000000000   0.000000000000
  -0.293368940090   0.000000000000   0.000000000000   0.000000000000   0.000000000000   0.000000000000   0.000000000000   0.000000000000
   0.000000000000  -0.398178147920   0.000000000000   0.000000000000   0.000000000000   0.000000000000   0.000000000000   0.000000000000
   0.000000000000  -0.297130341990   0.000000000000   0.000000000000   0.000000000000   0.000000000000   0.000000000000   0.000000000000
   0.000000000000   0.000000000000   1.000000000000   0.000000000000   0.000000000000   0.000000000000   0.000000000000   0.000000000000
   0.000000000000   0.000000000000   0.000000000000   1.000000000000   0.000000000000   0.000000000000   0.000000000000   0.000000000000
   0.000000000000   0.000000000000   0.000000000000   0.000000000000   1.000000000000   0.000000000000   0.000000000000   0.000000000000
   0.000000000000   0.000000000000   0.000000000000   0.000000000000   0.000000000000   1.000000000000   0.000000000000   0.000000000000
   0.000000000000   0.000000000000   0.000000000000   0.000000000000   0.000000000000   0.000000000000   1.000000000000   0.000000000000
   0.000000000000   0.000000000000   0.000000000000   0.000000000000   0.000000000000   0.000000000000   0.000000000000   1.000000000000
* p-type functions
    9    5
     1298.4162107000
      307.7562578100
       99.1312339270
       37.3453055620
       15.2107126020
        6.4368981418
        2.5843928911
        1.0229993308
        0.3823395902
  20.247352194e-4   0.000000000000   0.000000000000   0.000000000000   0.000000000000
   0.016472586005   0.000000000000   0.000000000000   0.000000000000   0.000000000000
   0.077667284617   0.000000000000   0.000000000000   0.000000000000   0.000000000000
   0.000000000000   0.243288199850   0.000000000000   0.000000000000   0.000000000000
   0.000000000000   0.442593591850   0.000000000000   0.000000000000   0.000000000000
   0.000000000000   0.380496355410   0.000000000000   0.000000000000   0.000000000000
   0.000000000000   0.000000000000   1.000000000000   0.000000000000   0.000000000000
   0.000000000000   0.000000000000   0.000000000000   1.000000000000   0.000000000000
   0.000000000000   0.000000000000   0.000000000000   0.000000000000   1.000000000000
* d-type functions
    5    3
       23.4657510010
        6.3332300693
        2.0764079893
     6904.1160389e-4
     2109.2515216e-4
   0.026542832716   0.000000000000   0.000000000000
   0.138022845930   0.000000000000   0.000000000000
   0.353278429330   0.000000000000   0.000000000000
   0.000000000000   1.000000000000   0.000000000000
   0.000000000000   0.000000000000   1.000000000000

/V.Ahlrichs_VTZ.Schafer.14s9p5d.8s5p3d.
A. Schafer, H. Horn, R. Ahlrichs. J. Chem. Phys. 97 (1992) 2571-2577. doi:10.1063/1.463096
VANADIUM (14s,9p,5d) -> [8s,5p,3d]
    23.0   2
* s-type functions
   14    8
   271348.1594400000
    40672.0050780000
     9257.0761385000
     2622.7328773000
      858.5948018500
      314.1941865000
      124.4786212700
       50.4693993090
       12.5138469110
        5.3447758082
        1.5755631295
     6306.9033066e-4
     8795.4441572e-5
     3429.6919737e-5
  21.967094878e-5   0.000000000000   0.000000000000   0.000000000000   0.000000000000   0.000000000000   0.000000000000   0.000000000000
   0.001703860646   0.000000000000   0.000000000000   0.000000000000   0.000000000000   0.000000000000   0.000000000000   0.000000000000
  88.713720876e-4   0.000000000000   0.000000000000   0.000000000000   0.000000000000   0.000000000000   0.000000000000   0.000000000000
   0.036154324518   0.000000000000   0.000000000000   0.000000000000   0.000000000000   0.000000000000   0.000000000000   0.000000000000
   0.117808907590   0.000000000000   0.000000000000   0.000000000000   0.000000000000   0.000000000000   0.000000000000   0.000000000000
   0.288025361590   0.000000000000   0.000000000000   0.000000000000   0.000000000000   0.000000000000   0.000000000000   0.000000000000
   0.000000000000   0.427579172730   0.000000000000   0.000000000000   0.000000000000   0.000000000000   0.000000000000   0.000000000000
   0.000000000000   0.321442313290   0.000000000000   0.000000000000   0.000000000000   0.000000000000   0.000000000000   0.000000000000
   0.000000000000   0.000000000000   1.000000000000   0.000000000000   0.000000000000   0.000000000000   0.000000000000   0.000000000000
   0.000000000000   0.000000000000   0.000000000000   1.000000000000   0.000000000000   0.000000000000   0.000000000000   0.000000000000
   0.000000000000   0.000000000000   0.000000000000   0.000000000000   1.000000000000   0.000000000000   0.000000000000   0.000000000000
   0.000000000000   0.000000000000   0.000000000000   0.000000000000   0.000000000000   1.000000000000   0.000000000000   0.000000000000
   0.000000000000   0.000000000000   0.000000000000   0.000000000000   0.000000000000   0.000000000000   1.000000000000   0.000000000000
   0.000000000000   0.000000000000   0.000000000000   0.000000000000   0.000000000000   0.000000000000   0.000000000000   1.000000000000
* p-type functions
    9    5
     1450.0319327000
      343.7504988400
      110.8252170800
       41.8224645460
       17.0880737100
        7.2613218939
        2.9458145262
        1.1650209680
     4339.9378389e-4
 -19.517397096e-4   0.000000000000   0.000000000000   0.000000000000   0.000000000000
  -0.015922014237   0.000000000000   0.000000000000   0.000000000000   0.000000000000
  -0.075385260252   0.000000000000   0.000000000000   0.000000000000   0.000000000000
   0.000000000000  -0.236656413160   0.000000000000   0.000000000000   0.000000000000
   0.000000000000  -0.433469198710   0.000000000000   0.000000000000   0.000000000000
   0.000000000000  -0.374330013500   0.000000000000   0.000000000000   0.000000000000
   0.000000000000   0.000000000000   1.000000000000   0.000000000000   0.000000000000
   0.000000000000   0.000000000000   0.000000000000   1.000000000000   0.000000000000
   0.000000000000   0.000000000000   0.000000000000   0.000000000000   1.000000000000
* d-type functions
    5    3
       27.3603358640
        7.4542765527
        2.4632270217
        0.8249954244
     2526.2970572e-4
   0.026644270033   0.000000000000   0.000000000000
   0.139994364710   0.000000000000   0.000000000000
   0.357611864350   0.000000000000   0.000000000000
   0.000000000000   1.000000000000   0.000000000000
   0.000000000000   0.000000000000   1.000000000000

/Cr.Ahlrichs_VTZ.Schafer.14s9p5d.8s5p3d.
A. Schafer, H. Horn, R. Ahlrichs. J. Chem. Phys. 97 (1992) 2571-2577. doi:10.1063/1.463096
CHROMIUM (14s,9p,5d) -> [8s,5p,3d]
    24.0   2
* s-type functions
   14    8
   296910.3817500000
    44503.2979810000
    10129.0837310000
     2869.8125395000
      939.5285182800
      343.8766756200
      136.2724208100
       55.2749359100
       13.7537150650
        5.8893064458
        1.7366781917
     6761.9018171e-4
     9218.7616038e-5
     3612.0107071e-5
  21.631828095e-5   0.000000000000   0.000000000000   0.000000000000   0.000000000000   0.000000000000   0.000000000000   0.000000000000
   0.001677889232   0.000000000000   0.000000000000   0.000000000000   0.000000000000   0.000000000000   0.000000000000   0.000000000000
  87.367682069e-4   0.000000000000   0.000000000000   0.000000000000   0.000000000000   0.000000000000   0.000000000000   0.000000000000
   0.035614011193   0.000000000000   0.000000000000   0.000000000000   0.000000000000   0.000000000000   0.000000000000   0.000000000000
   0.116120815640   0.000000000000   0.000000000000   0.000000000000   0.000000000000   0.000000000000   0.000000000000   0.000000000000
   0.284293659440   0.000000000000   0.000000000000   0.000000000000   0.000000000000   0.000000000000   0.000000000000   0.000000000000
   0.000000000000   0.396188047550   0.000000000000   0.000000000000   0.000000000000   0.000000000000   0.000000000000   0.000000000000
   0.000000000000   0.299341434530   0.000000000000   0.000000000000   0.000000000000   0.000000000000   0.000000000000   0.000000000000
   0.000000000000   0.000000000000   1.000000000000   0.000000000000   0.000000000000   0.000000000000   0.000000000000   0.000000000000
   0.000000000000   0.000000000000   0.000000000000   1.000000000000   0.000000000000   0.000000000000   0.000000000000   0.000000000000
   0.000000000000   0.000000000000   0.000000000000   0.000000000000   1.000000000000   0.000000000000   0.000000000000   0.000000000000
   0.000000000000   0.000000000000   0.000000000000   0.000000000000   0.000000000000   1.000000000000   0.000000000000   0.000000000000
   0.000000000000   0.000000000000   0.000000000000   0.000000000000   0.000000000000   0.000000000000   1.000000000000   0.000000000000
   0.000000000000   0.000000000000   0.000000000000   0.000000000000   0.000000000000   0.000000000000   0.000000000000   1.000000000000
* p-type functions
    9    5
     1608.8743670000
      381.4298700600
      123.0192684100
       46.4467821280
       19.0034947600
        8.0889965397
        3.3013703884
        1.2877624138
        0.4654684426
   0.001936446367   0.000000000000   0.000000000000   0.000000000000   0.000000000000
   0.015839007300   0.000000000000   0.000000000000   0.000000000000   0.000000000000
   0.075350154154   0.000000000000   0.000000000000   0.000000000000   0.000000000000
   0.000000000000   0.239494513980   0.000000000000   0.000000000000   0.000000000000
   0.000000000000   0.440994031190   0.000000000000   0.000000000000   0.000000000000
   0.000000000000   0.380199755600   0.000000000000   0.000000000000   0.000000000000
   0.000000000000   0.000000000000   1.000000000000   0.000000000000   0.000000000000
   0.000000000000   0.000000000000   0.000000000000   1.000000000000   0.000000000000
   0.000000000000   0.000000000000   0.000000000000   0.000000000000   1.000000000000
* d-type functions
    5    3
       27.5467337310
        7.4647940726
        2.4327524296
     7818.7817732e-4
     2197.7377631e-4
   0.030633260432   0.000000000000   0.000000000000
   0.156040656730   0.000000000000   0.000000000000
   0.370030577800   0.000000000000   0.000000000000
   0.000000000000   1.000000000000   0.000000000000
   0.000000000000   0.000000000000   1.000000000000

/Mn.Ahlrichs_VTZ.Schafer.14s9p5d.8s5p3d.
A. Schafer, H. Horn, R. Ahlrichs. J. Chem. Phys. 97 (1992) 2571-2577. doi:10.1063/1.463096
MANGANESE (14s,9p,5d) -> [8s,5p,3d]
    25.0   2
* s-type functions
   14    8
   323081.7447500000
    48425.9871470000
    11021.9284210000
     3122.8651683000
     1022.5702211000
      374.5666773200
      148.6501395300
       60.3790567850
       15.0612890370
        6.4827687206
        1.9535131494
        0.7701785025
     1019.2025361e-4
     3861.9748377e-5
  -2.185907002e-4   0.000000000000   0.000000000000   0.000000000000   0.000000000000   0.000000000000   0.000000000000   0.000000000000
 -16.955363594e-4   0.000000000000   0.000000000000   0.000000000000   0.000000000000   0.000000000000   0.000000000000   0.000000000000
 -88.290480374e-4   0.000000000000   0.000000000000   0.000000000000   0.000000000000   0.000000000000   0.000000000000   0.000000000000
  -0.035993860594   0.000000000000   0.000000000000   0.000000000000   0.000000000000   0.000000000000   0.000000000000   0.000000000000
  -0.117364414260   0.000000000000   0.000000000000   0.000000000000   0.000000000000   0.000000000000   0.000000000000   0.000000000000
  -0.287259427600   0.000000000000   0.000000000000   0.000000000000   0.000000000000   0.000000000000   0.000000000000   0.000000000000
   0.000000000000  -0.380259877890   0.000000000000   0.000000000000   0.000000000000   0.000000000000   0.000000000000   0.000000000000
   0.000000000000  -0.289454108680   0.000000000000   0.000000000000   0.000000000000   0.000000000000   0.000000000000   0.000000000000
   0.000000000000   0.000000000000   1.000000000000   0.000000000000   0.000000000000   0.000000000000   0.000000000000   0.000000000000
   0.000000000000   0.000000000000   0.000000000000   1.000000000000   0.000000000000   0.000000000000   0.000000000000   0.000000000000
   0.000000000000   0.000000000000   0.000000000000   0.000000000000   1.000000000000   0.000000000000   0.000000000000   0.000000000000
   0.000000000000   0.000000000000   0.000000000000   0.000000000000   0.000000000000   1.000000000000   0.000000000000   0.000000000000
   0.000000000000   0.000000000000   0.000000000000   0.000000000000   0.000000000000   0.000000000000   1.000000000000   0.000000000000
   0.000000000000   0.000000000000   0.000000000000   0.000000000000   0.000000000000   0.000000000000   0.000000000000   1.000000000000
* p-type functions
    9    5
     1777.8786824000
      421.5775418000
      136.1133399900
       51.5067786340
       21.1532254410
        9.0477144185
        3.7308563614
        1.4705331536
     5439.1840977e-4
 -19.331617534e-4   0.000000000000   0.000000000000   0.000000000000   0.000000000000
  -0.015844007165   0.000000000000   0.000000000000   0.000000000000   0.000000000000
  -0.075568981168   0.000000000000   0.000000000000   0.000000000000   0.000000000000
   0.000000000000  -0.235974351060   0.000000000000   0.000000000000   0.000000000000
   0.000000000000  -0.437187915730   0.000000000000   0.000000000000   0.000000000000
   0.000000000000  -0.380241925040   0.000000000000   0.000000000000   0.000000000000
   0.000000000000   0.000000000000   1.000000000000   0.000000000000   0.000000000000
   0.000000000000   0.000000000000   0.000000000000   1.000000000000   0.000000000000
   0.000000000000   0.000000000000   0.000000000000   0.000000000000   1.000000000000
* d-type functions
    5    3
       35.4248166460
        9.7813282131
        3.2670712909
        1.1028271910
     3374.8086571e-4
   0.028270751938   0.000000000000   0.000000000000
   0.150716654580   0.000000000000   0.000000000000
   0.381585520240   0.000000000000   0.000000000000
   0.000000000000   1.000000000000   0.000000000000
   0.000000000000   0.000000000000   1.000000000000

/Fe.Ahlrichs_VTZ.Schafer.14s9p5d.8s5p3d.
A. Schafer, H. Horn, R. Ahlrichs. J. Chem. Phys. 97 (1992) 2571-2577. doi:10.1063/1.463096
IRON (14s,9p,5d) -> [8s,5p,3d]
    26.0   2
* s-type functions
   14    8
   350644.1260700000
    52557.1044770000
    11962.1576030000
     3389.2987902000
     1109.9409814000
      406.7589212400
      161.5541919600
       65.6752111800
       16.4257132240
        7.0930281780
        2.1594285091
     8477.1349067e-4
     1107.9496206e-4
     4131.6804349e-5
   2.193042561e-4   0.000000000000   0.000000000000   0.000000000000   0.000000000000   0.000000000000   0.000000000000   0.000000000000
  17.010935336e-4   0.000000000000   0.000000000000   0.000000000000   0.000000000000   0.000000000000   0.000000000000   0.000000000000
  88.585173662e-4   0.000000000000   0.000000000000   0.000000000000   0.000000000000   0.000000000000   0.000000000000   0.000000000000
   0.036119369310   0.000000000000   0.000000000000   0.000000000000   0.000000000000   0.000000000000   0.000000000000   0.000000000000
   0.117805280340   0.000000000000   0.000000000000   0.000000000000   0.000000000000   0.000000000000   0.000000000000   0.000000000000
   0.288466261720   0.000000000000   0.000000000000   0.000000000000   0.000000000000   0.000000000000   0.000000000000   0.000000000000
   0.000000000000   0.381620193290   0.000000000000   0.000000000000   0.000000000000   0.000000000000   0.000000000000   0.000000000000
   0.000000000000   0.292125751480   0.000000000000   0.000000000000   0.000000000000   0.000000000000   0.000000000000   0.000000000000
   0.000000000000   0.000000000000   1.000000000000   0.000000000000   0.000000000000   0.000000000000   0.000000000000   0.000000000000
   0.000000000000   0.000000000000   0.000000000000   1.000000000000   0.000000000000   0.000000000000   0.000000000000   0.000000000000
   0.000000000000   0.000000000000   0.000000000000   0.000000000000   1.000000000000   0.000000000000   0.000000000000   0.000000000000
   0.000000000000   0.000000000000   0.000000000000   0.000000000000   0.000000000000   1.000000000000   0.000000000000   0.000000000000
   0.000000000000   0.000000000000   0.000000000000   0.000000000000   0.000000000000   0.000000000000   1.000000000000   0.000000000000
   0.000000000000   0.000000000000   0.000000000000   0.000000000000   0.000000000000   0.000000000000   0.000000000000   1.000000000000
* p-type functions
    9    5
     1953.6045319000
      463.2931406600
      149.6749333100
       56.7071120310
       23.3410288660
       10.0113931640
        4.1564019580
        1.6369582567
     6037.6297473e-4
  19.381610539e-4   0.000000000000   0.000000000000   0.000000000000   0.000000000000
   0.015916196664   0.000000000000   0.000000000000   0.000000000000   0.000000000000
   0.076149150478   0.000000000000   0.000000000000   0.000000000000   0.000000000000
   0.000000000000   0.236244304610   0.000000000000   0.000000000000   0.000000000000
   0.000000000000   0.439788846280   0.000000000000   0.000000000000   0.000000000000
   0.000000000000   0.383625855550   0.000000000000   0.000000000000   0.000000000000
   0.000000000000   0.000000000000   1.000000000000   0.000000000000   0.000000000000
   0.000000000000   0.000000000000   0.000000000000   1.000000000000   0.000000000000
   0.000000000000   0.000000000000   0.000000000000   0.000000000000   1.000000000000
* d-type functions
    5    3
       38.9664423920
       10.7989708770
        3.6129748398
        1.2130285825
        0.3652397846
   0.027884067710   0.000000000000   0.000000000000
   0.148631349300   0.000000000000   0.000000000000
   0.369129587000   0.000000000000   0.000000000000
   0.000000000000   1.000000000000   0.000000000000
   0.000000000000   0.000000000000   1.000000000000

/Co.Ahlrichs_VTZ.Schafer.14s9p5d.8s5p3d.
A. Schafer, H. Horn, R. Ahlrichs. J. Chem. Phys. 97 (1992) 2571-2577. doi:10.1063/1.463096
COBALT (14s,9p,5d) -> [8s,5p,3d]
    27.0   2
* s-type functions
   14    8
   379411.7746100000
    56868.9343960000
    12943.6084620000
     3667.4532601000
     1201.1404591000
      440.3391947800
      175.0003529700
       71.1909815490
       17.8490079240
        7.7276070252
        2.3708060829
     9262.8271613e-4
     1190.8620529e-4
     4378.2392241e-5
  -2.154791018e-4   0.000000000000   0.000000000000   0.000000000000   0.000000000000   0.000000000000   0.000000000000   0.000000000000
 -16.714437766e-4   0.000000000000   0.000000000000   0.000000000000   0.000000000000   0.000000000000   0.000000000000   0.000000000000
 -87.044472982e-4   0.000000000000   0.000000000000   0.000000000000   0.000000000000   0.000000000000   0.000000000000   0.000000000000
  -0.035496174518   0.000000000000   0.000000000000   0.000000000000   0.000000000000   0.000000000000   0.000000000000   0.000000000000
  -0.115810232440   0.000000000000   0.000000000000   0.000000000000   0.000000000000   0.000000000000   0.000000000000   0.000000000000
  -0.283746080410   0.000000000000   0.000000000000   0.000000000000   0.000000000000   0.000000000000   0.000000000000   0.000000000000
   0.000000000000  -0.384041725170   0.000000000000   0.000000000000   0.000000000000   0.000000000000   0.000000000000   0.000000000000
   0.000000000000  -0.295454163410   0.000000000000   0.000000000000   0.000000000000   0.000000000000   0.000000000000   0.000000000000
   0.000000000000   0.000000000000   1.000000000000   0.000000000000   0.000000000000   0.000000000000   0.000000000000   0.000000000000
   0.000000000000   0.000000000000   0.000000000000   1.000000000000   0.000000000000   0.000000000000   0.000000000000   0.000000000000
   0.000000000000   0.000000000000   0.000000000000   0.000000000000   1.000000000000   0.000000000000   0.000000000000   0.000000000000
   0.000000000000   0.000000000000   0.000000000000   0.000000000000   0.000000000000   1.000000000000   0.000000000000   0.000000000000
   0.000000000000   0.000000000000   0.000000000000   0.000000000000   0.000000000000   0.000000000000   1.000000000000   0.000000000000
   0.000000000000   0.000000000000   0.000000000000   0.000000000000   0.000000000000   0.000000000000   0.000000000000   1.000000000000
* p-type functions
    9    5
     2137.6007768000
      506.9729217400
      163.8752488100
       62.1518989910
       25.6323314350
       11.0207390270
        4.6024341479
        1.8102832176
     6656.9223705e-4
 -19.057939757e-4   0.000000000000   0.000000000000   0.000000000000   0.000000000000
  -0.015678387875   0.000000000000   0.000000000000   0.000000000000   0.000000000000
  -0.075229629993   0.000000000000   0.000000000000   0.000000000000   0.000000000000
   0.000000000000  -0.233692313800   0.000000000000   0.000000000000   0.000000000000
   0.000000000000  -0.436931032120   0.000000000000   0.000000000000   0.000000000000
   0.000000000000  -0.382108630800   0.000000000000   0.000000000000   0.000000000000
   0.000000000000   0.000000000000   1.000000000000   0.000000000000   0.000000000000
   0.000000000000   0.000000000000   0.000000000000   1.000000000000   0.000000000000
   0.000000000000   0.000000000000   0.000000000000   0.000000000000   1.000000000000
* d-type functions
    5    3
       42.9243727770
       11.9408096010
        4.0037210467
        1.3412566852
        0.4001124188
   0.029754871320   0.000000000000   0.000000000000
   0.158857144840   0.000000000000   0.000000000000
   0.389706177580   0.000000000000   0.000000000000
   0.000000000000   0.496526105490   0.000000000000
   0.000000000000   0.000000000000   0.327199327540

/Ni.Ahlrichs_VTZ.Schafer.14s9p5d.8s5p3d.
A. Schafer, H. Horn, R. Ahlrichs. J. Chem. Phys. 97 (1992) 2571-2577. doi:10.1063/1.463096
NICKEL (14s,9p,5d) -> [8s,5p,3d]
    28.0   2
* s-type functions
   14    8
   409347.8689900000
    61355.8392550000
    13964.8581280000
     3956.8598699000
     1296.0290474000
      475.2787651600
      188.9883877500
       76.9287369760
       19.3318287300
        8.3876399732
        2.5894342897
        1.0071374699
     1273.2573122e-4
     4618.9806319e-5
  21.251775671e-5   0.000000000000   0.000000000000   0.000000000000   0.000000000000   0.000000000000   0.000000000000   0.000000000000
  16.484929893e-4   0.000000000000   0.000000000000   0.000000000000   0.000000000000   0.000000000000   0.000000000000   0.000000000000
  85.853287121e-4   0.000000000000   0.000000000000   0.000000000000   0.000000000000   0.000000000000   0.000000000000   0.000000000000
   0.035015333983   0.000000000000   0.000000000000   0.000000000000   0.000000000000   0.000000000000   0.000000000000   0.000000000000
   0.114276727170   0.000000000000   0.000000000000   0.000000000000   0.000000000000   0.000000000000   0.000000000000   0.000000000000
   0.280152495190   0.000000000000   0.000000000000   0.000000000000   0.000000000000   0.000000000000   0.000000000000   0.000000000000
   0.000000000000   0.392462842440   0.000000000000   0.000000000000   0.000000000000   0.000000000000   0.000000000000   0.000000000000
   0.000000000000   0.303313021780   0.000000000000   0.000000000000   0.000000000000   0.000000000000   0.000000000000   0.000000000000
   0.000000000000   0.000000000000   1.000000000000   0.000000000000   0.000000000000   0.000000000000   0.000000000000   0.000000000000
   0.000000000000   0.000000000000   0.000000000000   1.000000000000   0.000000000000   0.000000000000   0.000000000000   0.000000000000
   0.000000000000   0.000000000000   0.000000000000   0.000000000000   1.000000000000   0.000000000000   0.000000000000   0.000000000000
   0.000000000000   0.000000000000   0.000000000000   0.000000000000   0.000000000000   1.000000000000   0.000000000000   0.000000000000
   0.000000000000   0.000000000000   0.000000000000   0.000000000000   0.000000000000   0.000000000000   1.000000000000   0.000000000000
   0.000000000000   0.000000000000   0.000000000000   0.000000000000   0.000000000000   0.000000000000   0.000000000000   1.000000000000
* p-type functions
    9    5
     2329.8384386000
      552.6069301500
      178.7119358400
       67.8417508130
       28.0280335330
       12.0764691990
        5.0694186684
        1.9911895236
     7300.6887823e-4
 -18.414189988e-4   0.000000000000   0.000000000000   0.000000000000   0.000000000000
  -0.015173689070   0.000000000000   0.000000000000   0.000000000000   0.000000000000
  -0.073004669649   0.000000000000   0.000000000000   0.000000000000   0.000000000000
   0.000000000000  -0.232248448520   0.000000000000   0.000000000000   0.000000000000
   0.000000000000  -0.435960470400   0.000000000000   0.000000000000   0.000000000000
   0.000000000000  -0.382137857330   0.000000000000   0.000000000000   0.000000000000
   0.000000000000   0.000000000000   1.000000000000   0.000000000000   0.000000000000
   0.000000000000   0.000000000000   0.000000000000   1.000000000000   0.000000000000
   0.000000000000   0.000000000000   0.000000000000   0.000000000000   1.000000000000
* d-type functions
    5    3
       47.0883036450
       13.1440672260
        4.4158589541
        1.4769996640
     4372.8964755e-4
   0.031522580302   0.000000000000   0.000000000000
   0.168553256910   0.000000000000   0.000000000000
   0.409300046520   0.000000000000   0.000000000000
   0.000000000000   0.515015277790   0.000000000000
   0.000000000000   0.000000000000   0.339626712340

/Cu.Ahlrichs_VTZ.Schafer.14s9p5d.8s5p3d.
A. Schafer, H. Horn, R. Ahlrichs. J. Chem. Phys. 97 (1992) 2571-2577. doi:10.1063/1.463096
COPPER (14s,9p,5d) -> [8s,5p,3d]
    29.0   2
* s-type functions
   14    8
   441087.2507000000
    66112.0211870000
    15047.0114250000
     4263.4273084000
     1396.3815797000
      511.9605578800
      203.4542694800
       82.7923370270
       20.8542856340
        9.0410679584
        2.7518135173
        1.0434856515
     1117.2292442e-4
      410.4102033e-4
 -21.814173104e-5   0.000000000000   0.000000000000   0.000000000000   0.000000000000   0.000000000000   0.000000000000   0.000000000000
 -16.921935882e-4   0.000000000000   0.000000000000   0.000000000000   0.000000000000   0.000000000000   0.000000000000   0.000000000000
 -88.137131631e-4   0.000000000000   0.000000000000   0.000000000000   0.000000000000   0.000000000000   0.000000000000   0.000000000000
  -0.035954659517   0.000000000000   0.000000000000   0.000000000000   0.000000000000   0.000000000000   0.000000000000   0.000000000000
  -0.117429704730   0.000000000000   0.000000000000   0.000000000000   0.000000000000   0.000000000000   0.000000000000   0.000000000000
  -0.288442674270   0.000000000000   0.000000000000   0.000000000000   0.000000000000   0.000000000000   0.000000000000   0.000000000000
   0.000000000000  -0.426788989250   0.000000000000   0.000000000000   0.000000000000   0.000000000000   0.000000000000   0.000000000000
   0.000000000000  -0.330441285450   0.000000000000   0.000000000000   0.000000000000   0.000000000000   0.000000000000   0.000000000000
   0.000000000000   0.000000000000   1.000000000000   0.000000000000   0.000000000000   0.000000000000   0.000000000000   0.000000000000
   0.000000000000   0.000000000000   0.000000000000   1.000000000000   0.000000000000   0.000000000000   0.000000000000   0.000000000000
   0.000000000000   0.000000000000   0.000000000000   0.000000000000   1.000000000000   0.000000000000   0.000000000000   0.000000000000
   0.000000000000   0.000000000000   0.000000000000   0.000000000000   0.000000000000   1.000000000000   0.000000000000   0.000000000000
   0.000000000000   0.000000000000   0.000000000000   0.000000000000   0.000000000000   0.000000000000   1.000000000000   0.000000000000
   0.000000000000   0.000000000000   0.000000000000   0.000000000000   0.000000000000   0.000000000000   0.000000000000   1.000000000000
* p-type functions
    9    5
     2530.0965671000
      600.0979295400
      194.0820447900
       73.6718213770
       30.4473696900
       13.1227148750
        5.5214839972
        2.1457922130
     7679.7488702e-4
  19.137941259e-4   0.000000000000   0.000000000000   0.000000000000   0.000000000000
   0.015797670964   0.000000000000   0.000000000000   0.000000000000   0.000000000000
   0.076271259615   0.000000000000   0.000000000000   0.000000000000   0.000000000000
   0.000000000000   0.238814523090   0.000000000000   0.000000000000   0.000000000000
   0.000000000000   0.449800158970   0.000000000000   0.000000000000   0.000000000000
   0.000000000000   0.393376823910   0.000000000000   0.000000000000   0.000000000000
   0.000000000000   0.000000000000   1.000000000000   0.000000000000   0.000000000000
   0.000000000000   0.000000000000   0.000000000000   1.000000000000   0.000000000000
   0.000000000000   0.000000000000   0.000000000000   0.000000000000   1.000000000000
* d-type functions
    5    3
       47.3137437030
       13.1546884490
        4.3662885749
        1.4122065936
     3884.0713001e-4
   0.032399760431   0.000000000000   0.000000000000
   0.168227065300   0.000000000000   0.000000000000
   0.384944296030   0.000000000000   0.000000000000
   0.000000000000   1.000000000000   0.000000000000
   0.000000000000   0.000000000000   1.000000000000

/Zn.Ahlrichs_VTZ.Schafer.14s9p5d.8s5p3d.
A. Schafer, H. Horn, R. Ahlrichs. J. Chem. Phys. 97 (1992) 2571-2577. doi:10.1063/1.463096
ZINC (14s,9p,5d) -> [8s,5p,3d]
    30.0   2
* s-type functions
   14    8
   472745.9416400000
    70858.0994840000
    16127.6397330000
     4569.7614320000
     1496.9765379000
      549.2564688800
      218.5901101200
       89.0688233280
       22.4757516930
        9.7836990852
        3.0476097903
        1.1751310173
        0.1433673810
     5076.1504256e-5
[...]
 -16.445989897e-4   0.000000000000   0.000000000000   0.000000000000   0.000000000000   0.000000000000   0.000000000000   0.000000000000
 -85.660702046e-4   0.000000000000   0.000000000000   0.000000000000   0.000000000000   0.000000000000   0.000000000000   0.000000000000
  -0.034946370611   0.000000000000   0.000000000000   0.000000000000   0.000000000000   0.000000000000   0.000000000000   0.000000000000
  -0.114061520820   0.000000000000   0.000000000000   0.000000000000   0.000000000000   0.000000000000   0.000000000000   0.000000000000
  -0.279363279620   0.000000000000   0.000000000000   0.000000000000   0.000000000000   0.000000000000   0.000000000000   0.000000000000
   0.000000000000  -0.391009433550   0.000000000000   0.000000000000   0.000000000000   0.000000000000   0.000000000000   0.000000000000
   0.000000000000  -0.308450920510   0.000000000000   0.000000000000   0.000000000000   0.000000000000   0.000000000000   0.000000000000
   0.000000000000   0.000000000000   1.000000000000   0.000000000000   0.000000000000   0.000000000000   0.000000000000   0.000000000000
   0.000000000000   0.000000000000   0.000000000000   1.000000000000   0.000000000000   0.000000000000   0.000000000000   0.000000000000
   0.000000000000   0.000000000000   0.000000000000   0.000000000000   1.000000000000   0.000000000000   0.000000000000   0.000000000000
   0.000000000000   0.000000000000   0.000000000000   0.000000000000   0.000000000000   1.000000000000   0.000000000000   0.000000000000
   0.000000000000   0.000000000000   0.000000000000   0.000000000000   0.000000000000   0.000000000000   1.000000000000   0.000000000000
   0.000000000000   0.000000000000   0.000000000000   0.000000000000   0.000000000000   0.000000000000   0.000000000000   1.000000000000
* p-type functions
   11    6
     3196.8571212000
      758.7857470700
      246.4018616200
       94.4290894810
       39.6023332660
       17.3940232190
        7.5468872383
        3.1497947773
        1.2651485767
     3002.4031728e-4
     8731.9187211e-5
  15.092965988e-4   0.000000000000   0.000000000000   0.000000000000   0.000000000000   0.000000000000
   0.012488543624   0.000000000000   0.000000000000   0.000000000000   0.000000000000   0.000000000000
   0.060253286742   0.000000000000   0.000000000000   0.000000000000   0.000000000000   0.000000000000
   0.000000000000   0.226366096560   0.000000000000   0.000000000000   0.000000000000   0.000000000000
   0.000000000000   0.431523718680   0.000000000000   0.000000000000   0.000000000000   0.000000000000
   0.000000000000   0.394964230140   0.000000000000   0.000000000000   0.000000000000   0.000000000000
   0.000000000000   0.000000000000   1.000000000000   0.000000000000   0.000000000000   0.000000000000
   0.000000000000   0.000000000000   0.000000000000   0.597736528610   0.000000000000   0.000000000000
   0.000000000000   0.000000000000   0.000000000000   0.349467727700   0.000000000000   0.000000000000
   0.000000000000   0.000000000000   0.000000000000   0.000000000000   1.000000000000   0.000000000000
   0.000000000000   0.000000000000   0.000000000000   0.000000000000   0.000000000000   1.000000000000
* d-type functions
    5    2
       74.7764479030
       21.3077627270
        7.3452966023
        2.5656881541
     8198.8587339e-4
   0.025760221955   0.000000000000
   0.145409917750   0.000000000000
   0.371363677030   0.000000000000
   0.480031504670   0.000000000000
   0.000000000000   1.000000000000

/As.Ahlrichs_VTZ.Schafer.14s11p5d.8s6p2d.
A. Schafer, H. Horn, R. Ahlrichs. J. Chem. Phys. 97 (1992) 2571-2577. doi:10.1063/1.463096
ARSENIC (14s,11p,5d) -> [8s,6p,2d]
    33.0   2
* s-type functions
   14    8
   573690.5114000000
    85988.1834550000
    19571.4742700000
     5546.0309804000
     1817.8361947000
      668.6367549200
      267.3879594800
      109.4133525300
       27.7377668180
       12.2385286750
        4.1265920360
        1.6835020306
     2995.4009858e-4
     1131.8866642e-4
 -21.423470465e-5   0.000000000000   0.000000000000   0.000000000000   0.000000000000   0.000000000000   0.000000000000   0.000000000000
 -16.618749677e-4   0.000000000000   0.000000000000   0.000000000000   0.000000000000   0.000000000000   0.000000000000   0.000000000000
 -86.561820675e-4   0.000000000000   0.000000000000   0.000000000000   0.000000000000   0.000000000000   0.000000000000   0.000000000000
  -0.035314044368   0.000000000000   0.000000000000   0.000000000000   0.000000000000   0.000000000000   0.000000000000   0.000000000000
  -0.115231393950   0.000000000000   0.000000000000   0.000000000000   0.000000000000   0.000000000000   0.000000000000   0.000000000000
  -0.281926471280   0.000000000000   0.000000000000   0.000000000000   0.000000000000   0.000000000000   0.000000000000   0.000000000000
   0.000000000000  -0.391335303200   0.000000000000   0.000000000000   0.000000000000   0.000000000000   0.000000000000   0.000000000000
   0.000000000000  -0.310526522600   0.000000000000   0.000000000000   0.000000000000   0.000000000000   0.000000000000   0.000000000000
   0.000000000000   0.000000000000   1.000000000000   0.000000000000   0.000000000000   0.000000000000   0.000000000000   0.000000000000
   0.000000000000   0.000000000000   0.000000000000   1.000000000000   0.000000000000   0.000000000000   0.000000000000   0.000000000000
   0.000000000000   0.000000000000   0.000000000000   0.000000000000   1.000000000000   0.000000000000   0.000000000000   0.000000000000
   0.000000000000   0.000000000000   0.000000000000   0.000000000000   0.000000000000   1.000000000000   0.000000000000   0.000000000000
   0.000000000000   0.000000000000   0.000000000000   0.000000000000   0.000000000000   0.000000000000   1.000000000000   0.000000000000
   0.000000000000   0.000000000000   0.000000000000   0.000000000000   0.000000000000   0.000000000000   0.000000000000   1.000000000000
* p-type functions
   11    6
     3425.0975358000
      813.0879709800
      264.2841476900
      101.5126370200
       42.7223506770
       18.8451139770
        8.2254455309
        3.4766363492
        1.4285918301
        0.3714979509
     1124.4760708e-4
 -14.737377532e-4   0.000000000000   0.000000000000   0.000000000000   0.000000000000   0.000000000000
  -0.012201465931   0.000000000000   0.000000000000   0.000000000000   0.000000000000   0.000000000000
  -0.058857336717   0.000000000000   0.000000000000   0.000000000000   0.000000000000   0.000000000000
   0.000000000000  -0.205731488450   0.000000000000   0.000000000000   0.000000000000   0.000000000000
   0.000000000000  -0.392863438070   0.000000000000   0.000000000000   0.000000000000   0.000000000000
   0.000000000000  -0.361963976060   0.000000000000   0.000000000000   0.000000000000   0.000000000000
   0.000000000000   0.000000000000   1.000000000000   0.000000000000   0.000000000000   0.000000000000
   0.000000000000   0.000000000000   0.000000000000  -0.596445534150   0.000000000000   0.000000000000
   0.000000000000   0.000000000000   0.000000000000  -0.350235923640   0.000000000000   0.000000000000
   0.000000000000   0.000000000000   0.000000000000   0.000000000000   1.000000000000   0.000000000000
   0.000000000000   0.000000000000   0.000000000000   0.000000000000   0.000000000000   1.000000000000
* d-type functions
    5    2
       84.4426216440
       24.1880517260
        8.4037833603
        2.9811949434
     9792.3123794e-4
   0.024520468921   0.000000000000
   0.141102243220   0.000000000000
   0.368743852340   0.000000000000
   0.484102900600   0.000000000000
   0.000000000000   1.000000000000

/Se.Ahlrichs_VTZ.Schafer.14s11p5d.8s6p2d.
A. Schafer, H. Horn, R. Ahlrichs. J. Chem. Phys. 97 (1992) 2571-2577. doi:10.1063/1.463096
SELENIUM (14s,11p,5d) -> [8s,6p,2d]
    34.0   2
* s-type functions
   14    8
   609461.5616500000
    91349.7284690000
    20791.8449100000
     5892.0009402000
     1931.5795523000
      711.0217329900
      284.7656300000
      116.6728033600
       29.6113798470
       13.1189215960
        4.5252274573
        1.8747678530
     3585.7737666e-4
     1361.7743845e-4
   2.066633429e-4   0.000000000000   0.000000000000   0.000000000000   0.000000000000   0.000000000000   0.000000000000   0.000000000000
  16.031495925e-4   0.000000000000   0.000000000000   0.000000000000   0.000000000000   0.000000000000   0.000000000000   0.000000000000
  83.504137596e-4   0.000000000000   0.000000000000   0.000000000000   0.000000000000   0.000000000000   0.000000000000   0.000000000000
   0.034066587387   0.000000000000   0.000000000000   0.000000000000   0.000000000000   0.000000000000   0.000000000000   0.000000000000
   0.111131999150   0.000000000000   0.000000000000   0.000000000000   0.000000000000   0.000000000000   0.000000000000   0.000000000000
   0.271608774520   0.000000000000   0.000000000000   0.000000000000   0.000000000000   0.000000000000   0.000000000000   0.000000000000
   0.000000000000   0.403533584770   0.000000000000   0.000000000000   0.000000000000   0.000000000000   0.000000000000   0.000000000000
   0.000000000000   0.322015375810   0.000000000000   0.000000000000   0.000000000000   0.000000000000   0.000000000000   0.000000000000
   0.000000000000   0.000000000000   1.000000000000   0.000000000000   0.000000000000   0.000000000000   0.000000000000   0.000000000000
   0.000000000000   0.000000000000   0.000000000000   1.000000000000   0.000000000000   0.000000000000   0.000000000000   0.000000000000
   0.000000000000   0.000000000000   0.000000000000   0.000000000000   1.000000000000   0.000000000000   0.000000000000   0.000000000000
   0.000000000000   0.000000000000   0.000000000000   0.000000000000   0.000000000000   1.000000000000   0.000000000000   0.000000000000
   0.000000000000   0.000000000000   0.000000000000   0.000000000000   0.000000000000   0.000000000000   1.000000000000   0.000000000000
   0.000000000000   0.000000000000   0.000000000000   0.000000000000   0.000000000000   0.000000000000   0.000000000000   1.000000000000
* p-type functions
   11    6
     3656.2658173000
      868.0821167300
      282.3887909000
      108.6824951800
       45.8804283730
       20.3136332100
        8.9138677790
        3.8029430087
        1.5911663461
     4475.5579009e-4
     1323.6319065e-4
  14.714128997e-4   0.000000000000   0.000000000000   0.000000000000   0.000000000000   0.000000000000
   0.012188231954   0.000000000000   0.000000000000   0.000000000000   0.000000000000   0.000000000000
   0.058780468899   0.000000000000   0.000000000000   0.000000000000   0.000000000000   0.000000000000
   0.000000000000   0.223851257130   0.000000000000   0.000000000000   0.000000000000   0.000000000000
   0.000000000000   0.427840379940   0.000000000000   0.000000000000   0.000000000000   0.000000000000
   0.000000000000   0.395698679760   0.000000000000   0.000000000000   0.000000000000   0.000000000000
   0.000000000000   0.000000000000   1.000000000000   0.000000000000   0.000000000000   0.000000000000
   0.000000000000   0.000000000000   0.000000000000   0.588950170300   0.000000000000   0.000000000000
   0.000000000000   0.000000000000   0.000000000000   0.341470042370   0.000000000000   0.000000000000
   0.000000000000   0.000000000000   0.000000000000   0.000000000000   1.000000000000   0.000000000000
   0.000000000000   0.000000000000   0.000000000000   0.000000000000   0.000000000000   1.000000000000
* d-type functions
    5    2
       94.4937939930
       27.1865089330
        9.5088741989
        3.4175441801
        1.1481458665
   0.023490451687   0.000000000000
   0.137493656150   0.000000000000
   0.366467627760   0.000000000000
   0.487522987420   0.000000000000
   0.000000000000   1.000000000000

/Br.Ahlrichs_VTZ.Schafer.14s11p5d.8s6p2d.
A. Schafer, H. Horn, R. Ahlrichs. J. Chem. Phys. 97 (1992) 2571-2577. doi:10.1063/1.463096
BROMINE (14s,11p,5d) -> [8s,6p,2d]
    35.0   2
* s-type functions
   14    8
   646312.4103900000
    96873.0389000000
    22048.9675740000
     6248.3557482000
     2048.7467977000
      754.7082696300
      302.6968910300
      124.1686689800
       31.5442810700
       14.0294359810
        4.9416679228
        2.0756618020
     4210.1474441e-4
     1605.8114367e-4
  20.844173405e-5   0.000000000000   0.000000000000   0.000000000000   0.000000000000   0.000000000000   0.000000000000   0.000000000000
  16.169556764e-4   0.000000000000   0.000000000000   0.000000000000   0.000000000000   0.000000000000   0.000000000000   0.000000000000
  84.224934763e-4   0.000000000000   0.000000000000   0.000000000000   0.000000000000   0.000000000000   0.000000000000   0.000000000000
   0.034360876797   0.000000000000   0.000000000000   0.000000000000   0.000000000000   0.000000000000   0.000000000000   0.000000000000
   0.112063610630   0.000000000000   0.000000000000   0.000000000000   0.000000000000   0.000000000000   0.000000000000   0.000000000000
   0.273604310840   0.000000000000   0.000000000000   0.000000000000   0.000000000000   0.000000000000   0.000000000000   0.000000000000
   0.000000000000   0.405612798030   0.000000000000   0.000000000000   0.000000000000   0.000000000000   0.000000000000   0.000000000000
   0.000000000000   0.325415010490   0.000000000000   0.000000000000   0.000000000000   0.000000000000   0.000000000000   0.000000000000
   0.000000000000   0.000000000000   1.000000000000   0.000000000000   0.000000000000   0.000000000000   0.000000000000   0.000000000000
   0.000000000000   0.000000000000   0.000000000000   1.000000000000   0.000000000000   0.000000000000   0.000000000000   0.000000000000
   0.000000000000   0.000000000000   0.000000000000   0.000000000000   1.000000000000   0.000000000000   0.000000000000   0.000000000000
   0.000000000000   0.000000000000   0.000000000000   0.000000000000   0.000000000000   1.000000000000   0.000000000000   0.000000000000
   0.000000000000   0.000000000000   0.000000000000   0.000000000000   0.000000000000   0.000000000000   1.000000000000   0.000000000000
   0.000000000000   0.000000000000   0.000000000000   0.000000000000   0.000000000000   0.000000000000   0.000000000000   1.000000000000
* p-type functions
   11    6
     3890.7181798000
      923.8586949300
      300.7553708500
      115.9637691400
       49.0932710780
       21.8103920520
        9.6190135611
        4.1341549028
        1.7549598851
     5280.1532318e-4
     1560.4837959e-4
  15.119787124e-4   0.000000000000   0.000000000000   0.000000000000   0.000000000000   0.000000000000
   0.012529302998   0.000000000000   0.000000000000   0.000000000000   0.000000000000   0.000000000000
   0.060405586937   0.000000000000   0.000000000000   0.000000000000   0.000000000000   0.000000000000
   0.000000000000   0.211022889640   0.000000000000   0.000000000000   0.000000000000   0.000000000000
   0.000000000000   0.403412883210   0.000000000000   0.000000000000   0.000000000000   0.000000000000
   0.000000000000   0.373864810430   0.000000000000   0.000000000000   0.000000000000   0.000000000000
   0.000000000000   0.000000000000   1.000000000000   0.000000000000   0.000000000000   0.000000000000
   0.000000000000   0.000000000000   0.000000000000   0.599316250110   0.000000000000   0.000000000000
   0.000000000000   0.000000000000   0.000000000000   0.339794002090   0.000000000000   0.000000000000
   0.000000000000   0.000000000000   0.000000000000   0.000000000000   1.000000000000   0.000000000000
   0.000000000000   0.000000000000   0.000000000000   0.000000000000   0.000000000000   1.000000000000
* d-type functions
    5    2
      104.8573297000
       30.2800805400
       10.6514971270
        3.8705893430
        1.3242996938
   0.022649313036   0.000000000000
   0.134562495330   0.000000000000
   0.364696746600   0.000000000000
   0.490464768850   0.000000000000
   0.000000000000   1.000000000000

/Kr.Ahlrichs_VTZ.Schafer.14s11p5d.8s6p2d.
A. Schafer, H. Horn, R. Ahlrichs. J. Chem. Phys. 97 (1992) 2571-2577. doi:10.1063/1.463096
KRYPTON (14s,11p,5d) -> [8s,6p,2d]
    36.0   2
* s-type functions
   14    8
   684221.9970000000
   102555.2004300000
    23342.3937750000
     6615.0835507000
     2169.3438677000
      799.6960795700
      321.1821210500
      131.9011167000
       33.5364730120
       14.9698885520
        5.3755395083
        2.2858479626
     4869.0237132e-4
        0.1864101171
  20.938881047e-5   0.000000000000   0.000000000000   0.000000000000   0.000000000000   0.000000000000   0.000000000000   0.000000000000
  16.243059281e-4   0.000000000000   0.000000000000   0.000000000000   0.000000000000   0.000000000000   0.000000000000   0.000000000000
  84.608205581e-4   0.000000000000   0.000000000000   0.000000000000   0.000000000000   0.000000000000   0.000000000000   0.000000000000
   0.034516931725   0.000000000000   0.000000000000   0.000000000000   0.000000000000   0.000000000000   0.000000000000   0.000000000000
   0.112545811800   0.000000000000   0.000000000000   0.000000000000   0.000000000000   0.000000000000   0.000000000000   0.000000000000
   0.274508588800   0.000000000000   0.000000000000   0.000000000000   0.000000000000   0.000000000000   0.000000000000   0.000000000000
   0.000000000000   0.339287553180   0.000000000000   0.000000000000   0.000000000000   0.000000000000   0.000000000000   0.000000000000
   0.000000000000   0.273599322130   0.000000000000   0.000000000000   0.000000000000   0.000000000000   0.000000000000   0.000000000000
   0.000000000000   0.000000000000   1.000000000000   0.000000000000   0.000000000000   0.000000000000   0.000000000000   0.000000000000
   0.000000000000   0.000000000000   0.000000000000   1.000000000000   0.000000000000   0.000000000000   0.000000000000   0.000000000000
   0.000000000000   0.000000000000   0.000000000000   0.000000000000   1.000000000000   0.000000000000   0.000000000000   0.000000000000
   0.000000000000   0.000000000000   0.000000000000   0.000000000000   0.000000000000   1.000000000000   0.000000000000   0.000000000000
   0.000000000000   0.000000000000   0.000000000000   0.000000000000   0.000000000000   0.000000000000   1.000000000000   0.000000000000
   0.000000000000   0.000000000000   0.000000000000   0.000000000000   0.000000000000   0.000000000000   0.000000000000   1.000000000000
* p-type functions
   11    6
     4128.6993199000
      980.4753440500
      319.4013582000
      123.3618104000
       52.3623187440
       23.3354250930
       10.3407450510
        4.4694078019
        1.9177854904
     6125.9063615e-4
     1823.6405019e-4
 -15.636044631e-4   0.000000000000   0.000000000000   0.000000000000   0.000000000000   0.000000000000
  -0.012961443065   0.000000000000   0.000000000000   0.000000000000   0.000000000000   0.000000000000
  -0.062464453956   0.000000000000   0.000000000000   0.000000000000   0.000000000000   0.000000000000
   0.000000000000  -0.212456768230   0.000000000000   0.000000000000   0.000000000000   0.000000000000
   0.000000000000  -0.406043158100   0.000000000000   0.000000000000   0.000000000000   0.000000000000
   0.000000000000  -0.376522081040   0.000000000000   0.000000000000   0.000000000000   0.000000000000
   0.000000000000   0.000000000000   1.000000000000   0.000000000000   0.000000000000   0.000000000000
   0.000000000000   0.000000000000   0.000000000000   0.556719306700   0.000000000000   0.000000000000
   0.000000000000   0.000000000000   0.000000000000   0.306044532890   0.000000000000   0.000000000000
   0.000000000000   0.000000000000   0.000000000000   0.000000000000   1.000000000000   0.000000000000
   0.000000000000   0.000000000000   0.000000000000   0.000000000000   0.000000000000   1.000000000000
* d-type functions
    5    2
      115.5623666700
       33.4772471490
       11.8347997360
        4.3415492653
        1.5081356984
   0.021944058194   0.000000000000
   0.132114602400   0.000000000000
   0.363276502980   0.000000000000
   0.493028600920   0.000000000000
   0.000000000000   1.000000000000

