************************************************************************
* This file is part of OpenMolcas.                                     *
*                                                                      *
* OpenMolcas is free software; you can redistribute it and/or modify   *
* it under the terms of the GNU Lesser General Public License, v. 2.1. *
* OpenMolcas is distributed in the hope that it will be useful, but it *
* is provided "as is" and without any express or implied warranties.   *
* For more details see the full text of the license in the file        *
* LICENSE or in <http://www.gnu.org/licenses/>.                        *
************************************************************************

#Hamiltonian RH_
#Nucleus UNK
#Contraction RAF
#AllElectron AE_

************************************************************************
* This file has been generated from Basis Set Exchange data:           *
*   https://www.basissetexchange.org                                   *
* Version: 1  (Data from Dalton)                                       *
************************************************************************

******************************************************************************
*   Reference state:                                                         *
*        The atomic ground state (see below)                                 *
*   Relativistic effect:                                                     *
*        The scalar relativistic third-order Douglas-Kroll(DK3) method       *
*   Primitive functions:                                                     *
*        Optimized by the total energy minimization in DK3-SCF               *
*   Contraction:                                                             *
*        Taken from the DK3-SCF orbital coefficients                         *
*                                                                            *
******************************************************************************
*                                                                            *
*   Atomic ground states:                                                    *
*                                                                            *
*   H(2S)                                                                    *
*   He(1S)                                                                   *
*   Li(2S)                                                                   *
*   Be(1S)                                                                   *
*   B(2P)                                                                    *
*   C(3P)                                                                    *
*   N(4S)                                                                    *
*   O(3P)                                                                    *
*   F(2P)                                                                    *
*   Ne(1S)                                                                   *
*   Na(2S)                                                                   *
*   Mg(1S)                                                                   *
*   Al(2P)                                                                   *
*   Si(3P)                                                                   *
*   P(4S)                                                                    *
*   S(3P)                                                                    *
*   Cl(2P)                                                                   *
*   Ar(1S)                                                                   *
*   K(2S)                                                                    *
*   Ca(1S)                                                                   *
*   Sc(2D)                                                                   *
*   Ti(3F)                                                                   *
*   V(4F)                                                                    *
*   Cr(7S)                                                                   *
*   Mn(6S)                                                                   *
*   Fe(5D)                                                                   *
*   Co(4F)                                                                   *
*   Ni(3F)                                                                   *
*   Cu(2S)                                                                   *
*   Zn(1S)                                                                   *
*   Ga(2P)                                                                   *
*   Ge(3P)                                                                   *
*   As(4S)                                                                   *
*   Se(3P)                                                                   *
*   Br(2P)                                                                   *
*   Kr(1S)                                                                   *
*   Rb(2S)                                                                   *
*   Sr(1S)                                                                   *
*   Y(2D)                                                                    *
*   Zr(3F)                                                                   *
*   Nb(6D)                                                                   *
*   Mo(7S)                                                                   *
*   Tc(6S)                                                                   *
*   Ru(5F)                                                                   *
*   Rh(4F)                                                                   *
*   Pd(1S)                                                                   *
*   Ag(2S)                                                                   *
*   Cd(1S)                                                                   *
*   In(2P)                                                                   *
*   Sn(3P)                                                                   *
*   Sb(4S)                                                                   *
*   Te(3P)                                                                   *
*   I(2P)                                                                    *
*   Xe(1S)                                                                   *
*   Cs(2S)                                                                   *
*   Ba(1S)                                                                   *
*   La(2D)                                                                   *
*   Ce(1G)                                                                   *
*   Pr(4I)                                                                   *
*   Nd(5I)                                                                   *
*   Pm(6H)                                                                   *
*   Sm(7F)                                                                   *
*   Eu(8S)                                                                   *
*   Gd(9D)                                                                   *
*   Tb(6H)                                                                   *
*   Dy(5I)                                                                   *
*   Ho(4I)                                                                   *
*   Er(3H)                                                                   *
*   Tm(2F)                                                                   *
*   Yb(1S)                                                                   *
*   Lu(2D)                                                                   *
*   Hf(3F)                                                                   *
*   Ta(4F)                                                                   *
*   W(5D)                                                                    *
*   Re(6S)                                                                   *
*   Os(5D)                                                                   *
*   Ir(4F)                                                                   *
*   Pt(3D)                                                                   *
*   Au(2S)                                                                   *
*   Hg(1S)                                                                   *
*   Tl(2P)                                                                   *
*   Pb(3P)                                                                   *
*   Bi(4S)                                                                   *
*   Po(3P)                                                                   *
*   At(2P)                                                                   *
*   Rn(1S)                                                                   *
*   Fr(2S)                                                                   *
*   Ra(1S)                                                                   *
*   Ac(2D)                                                                   *
*   Th(3F)                                                                   *
*   Pa(4J)                                                                   *
*   U(5L)                                                                    *
*   Np(6L)                                                                   *
*   Pu(7F)                                                                   *
*   Am(8S)                                                                   *
*   Cm(9D)                                                                   *
*   Bk(8H)                                                                   *
*   Cf(5I)                                                                   *
*   Es(4I)                                                                   *
*   Fm(3H)                                                                   *
*   Md(2F)                                                                   *
*   No(1S)                                                                   *
*   Lr(2D)                                                                   *
*                                                                            *
******************************************************************************

/X.ANO-DK3..0s.0s.
Dummy basis
GHOST (0s) -> [0s]
     0.0   0
* s-type functions
    0    0

/H.ANO-DK3.Tsuchiya.6s.1s.
T. Tsuchiya, M. Abe, T. Nakajima, K. Hirao. J. Chem. Phys. 115 (2001) 4463-4472. doi:10.1063/1.1390515
HYDROGEN (6s) -> [1s]
     1.0   0
* s-type functions
    6    1
         82.93275900
         12.45243700
          2.83305960
          0.80001038
          0.25859498
        899.69184e-4
   0.00200430
   0.01528880
   0.07531690
   0.25633450
   0.49761870
   0.29675610

/He.ANO-DK3.Tsuchiya.6s.1s.
T. Tsuchiya, M. Abe, T. Nakajima, K. Hirao. J. Chem. Phys. 115 (2001) 4463-4472. doi:10.1063/1.1390515
HELIUM (6s) -> [1s]
     2.0   0
* s-type functions
    6    1
        234.23121000
         35.17839200
          7.99103130
          2.21244200
          0.66706612
          0.20894799
   0.00261010
   0.01955090
   0.09101790
   0.27201380
   0.47800900
   0.30781980

/Li.ANO-DK3.Tsuchiya.12s.2s.
T. Tsuchiya, M. Abe, T. Nakajima, K. Hirao. J. Chem. Phys. 115 (2001) 4463-4472. doi:10.1063/1.1390515
LITHIUM (12s) -> [2s]
     3.0   0
* s-type functions
   12    2
       7237.42750000
       1079.71670000
        245.50191000
         69.53587700
         22.66199500
          8.13110630
          3.10013230
          1.22838380
          0.49395016
        930.77167e-4
        459.58947e-4
        214.98396e-4
   0.00012940  -0.00002020
   0.00084460  -0.00013200
   0.00431130  -0.00067590
   0.01763010  -0.00277400
   0.05928360  -0.00949920
   0.15870990  -0.02630360
   0.31590070  -0.05720850
   0.40115390  -0.09516220
   0.19925890  -0.12157080
   0.00964820   0.30117880
  -0.00524040   0.55110390
   0.00170830   0.25123610

/Be.ANO-DK3.Tsuchiya.12s.2s.
T. Tsuchiya, M. Abe, T. Nakajima, K. Hirao. J. Chem. Phys. 115 (2001) 4463-4472. doi:10.1063/1.1390515
BERYLLIUM (12s) -> [2s]
     4.0   0
* s-type functions
   12    2
      14682.36900000
       2181.92920000
        495.72119000
        140.41641000
         45.76594900
         16.45392700
          6.31699320
          2.53459310
          1.03536550
          0.25279254
          0.10516439
        426.06883e-4
   0.00013030  -0.00002370
   0.00076600  -0.00014010
   0.00382290  -0.00069590
   0.01560430  -0.00288350
   0.05306260  -0.00985240
   0.14579400  -0.02863990
   0.30268360  -0.06378700
   0.40468990  -0.11719510
   0.22225880  -0.12109400
   0.01297950   0.25351580
  -0.00469370   0.58182900
   0.00124370   0.29164490

/B.ANO-DK3.Tsuchiya.12s8p.2s1p.
T. Tsuchiya, M. Abe, T. Nakajima, K. Hirao. J. Chem. Phys. 115 (2001) 4463-4472. doi:10.1063/1.1390515
BORON (12s,8p) -> [2s,1p]
     5.0   1
* s-type functions
   12    2
    1348056.00000000
      12257.85000000
       1806.64100000
        406.47600000
        113.99080000
         36.85024000
         13.11091000
          4.96498700
          1.93652100
          0.50377510
          0.20607320
          0.07888486
   0.00000900  -0.00000180
   0.00027920  -0.00005650
   0.00171500  -0.00034640
   0.00867960  -0.00176740
   0.03515320  -0.00720450
   0.11323350  -0.02422210
   0.27306900  -0.06277790
   0.42596710  -0.12692570
   0.28038000  -0.14580620
   0.02320950   0.21374880
  -0.00658520   0.58702100
   0.00178400   0.33442410
* p-type functions
    8    1
      10414.65000000
         34.85396000
          8.16040000
          2.45049000
          0.84564540
          0.31535330
          0.11731410
          0.04355986
   0.00000100
   0.00247200
   0.01694610
   0.07203620
   0.21338200
   0.40324030
   0.41757010
   0.11066210

/C.ANO-DK3.Tsuchiya.12s7p.2s1p.
T. Tsuchiya, M. Abe, T. Nakajima, K. Hirao. J. Chem. Phys. 115 (2001) 4463-4472. doi:10.1063/1.1390515
CARBON (12s,7p) -> [2s,1p]
     6.0   1
* s-type functions
   12    2
      45124.82000000
       6196.19200000
       1378.28200000
        384.07490000
        122.53810000
         43.02819000
         16.26792000
          6.48174100
          2.64449200
          0.73803660
          0.29059560
          0.11263710
   0.00012940  -0.00002760
   0.00067180  -0.00014380
   0.00314410  -0.00066920
   0.01296380  -0.00280430
   0.04596820  -0.00997600
   0.13357090  -0.03078880
   0.29371700  -0.07310270
   0.41180320  -0.14046280
   0.23890970  -0.12817620
   0.01807500   0.27346040
  -0.00391750   0.58314210
   0.00121940   0.28806200
* p-type functions
    7    1
         58.93291000
         13.75535000
          4.21649400
          1.49377200
          0.56387880
          0.21711960
          0.08047826
   0.00225590
   0.01644140
   0.06929410
   0.20502450
   0.37832430
   0.41034450
   0.16169210

/N.ANO-DK3.Tsuchiya.12s8p.2s1p.
T. Tsuchiya, M. Abe, T. Nakajima, K. Hirao. J. Chem. Phys. 115 (2001) 4463-4472. doi:10.1063/1.1390515
NITROGEN (12s,8p) -> [2s,1p]
     7.0   1
* s-type functions
   12    2
      48826.84000000
       7224.75200000
       1634.75000000
        462.57430000
        151.11380000
         54.49473000
         21.11405000
          8.62087900
          3.59837800
          1.07720500
          0.42258370
          0.15943640
   0.00017410  -0.00003840
   0.00082320  -0.00018230
   0.00376390  -0.00082960
   0.01497450  -0.00335560
   0.05080050  -0.01144980
   0.14161390  -0.03404990
   0.29979380  -0.07850960
   0.40209460  -0.14591490
   0.22576920  -0.12129770
   0.01811840   0.26826770
  -0.00293190   0.58296530
   0.00100560   0.29824980
* p-type functions
    8    1
        562.95490000
         79.42632000
         20.13256000
          6.36553500
          2.28068700
          0.86447220
          0.32919430
          0.12069820
   0.00013550
   0.00232420
   0.01609470
   0.06847270
   0.20167460
   0.37394850
   0.40934480
   0.17598190

/O.ANO-DK3.Tsuchiya.12s8p.2s1p.
T. Tsuchiya, M. Abe, T. Nakajima, K. Hirao. J. Chem. Phys. 115 (2001) 4463-4472. doi:10.1063/1.1390515
OXYGEN (12s,8p) -> [2s,1p]
     8.0   1
* s-type functions
   12    2
     109234.90000000
      15421.33000000
       3272.82800000
        870.10720000
        268.27060000
         91.49282000
         33.61740000
         13.04648000
          5.20352300
          1.47742900
          0.57775210
          0.21267430
   0.00012170  -0.00002760
   0.00054000  -0.00012310
   0.00245110  -0.00055550
   0.01026690  -0.00236600
   0.03779600  -0.00870620
   0.11660620  -0.02850080
   0.27735240  -0.07280220
   0.42189860  -0.14912520
   0.26778070  -0.13954260
   0.02410230   0.26527840
  -0.00447850   0.58982640
   0.00146880   0.29554650
* p-type functions
    8    1
        366.40670000
         66.27956000
         18.74558000
          6.42686000
          2.44451300
          0.95771700
          0.36884010
          0.13644960
   0.00039570
   0.00471480
   0.02630730
   0.09630980
   0.23845490
   0.37774120
   0.36896250
   0.14955260

/F.ANO-DK3.Tsuchiya.12s8p.2s1p.
T. Tsuchiya, M. Abe, T. Nakajima, K. Hirao. J. Chem. Phys. 115 (2001) 4463-4472. doi:10.1063/1.1390515
FLUORINE (12s,8p) -> [2s,1p]
     9.0   1
* s-type functions
   12    2
     110495.50000000
      15883.58000000
       3549.23900000
        989.69550000
        319.32050000
        113.37070000
         42.96891000
         16.93399000
          6.77851200
          1.93430300
          0.75047140
          0.27320820
   0.00016330  -0.00003780
   0.00069180  -0.00016110
   0.00290740  -0.00067270
   0.01137410  -0.00267960
   0.03937410  -0.00926840
   0.11578250  -0.02899830
   0.27083930  -0.07272120
   0.41781000  -0.15046090
   0.27388920  -0.14210460
   0.02627210   0.26717600
  -0.00476150   0.59266330
   0.00160210   0.29278790
* p-type functions
    8    1
        345.19790000
         74.12544000
         22.56185000
          7.98041300
          3.07274000
          1.21006600
          0.46432470
          0.16923000
   0.00061240
   0.00562680
   0.02889250
   0.10319800
   0.24574030
   0.37424030
   0.36030100
   0.15126990

/Ne.ANO-DK3.Tsuchiya.12s8p.2s1p.
T. Tsuchiya, M. Abe, T. Nakajima, K. Hirao. J. Chem. Phys. 115 (2001) 4463-4472. doi:10.1063/1.1390515
NEON (12s,8p) -> [2s,1p]
    10.0   1
* s-type functions
   12    2
     100277.03000000
      15024.77700000
       3419.42430000
        968.33099000
        315.76162000
        113.81543000
         44.14264300
         18.08193200
          7.58544370
          2.35038640
          0.90552447
          0.33151899
   0.00023010  -0.00005410
   0.00094420  -0.00022310
   0.00391690  -0.00092140
   0.01504400  -0.00360330
   0.05068110  -0.01220070
   0.14155610  -0.03654070
   0.30157040  -0.08517880
   0.40143700  -0.15812410
   0.22279550  -0.11601600
   0.01915020   0.29650080
  -0.00226860   0.58618800
   0.00097630   0.27357380
* p-type functions
    8    1
        298.74009000
         70.70261200
         22.51593900
          8.28027040
          3.28796720
          1.32210270
          0.51743659
          0.19198390
   0.00108990
   0.00846630
   0.03967980
   0.12731390
   0.26918120
   0.37123410
   0.32980360
   0.12810710

/Na.ANO-DK3.Tsuchiya.16s11p.3s1p.
T. Tsuchiya, M. Abe, T. Nakajima, K. Hirao. J. Chem. Phys. 115 (2001) 4463-4472. doi:10.1063/1.1390515
SODIUM (16s,11p) -> [3s,1p]
    11.0   1
* s-type functions
   16    3
  505377900.00000000
     354909.50000000
      49559.05000000
      10648.83000000
       2864.18800000
        899.95120000
        315.21240000
        119.99330000
         48.70654000
         20.73200000
          8.98982100
          3.01079700
          1.21578600
          0.48074890
          0.05949717
          0.02371495
   0.00000090  -0.00000020   0.00000000
   0.00010460  -0.00002560  -0.00000390
   0.00039710  -0.00009720  -0.00001460
   0.00149240  -0.00036720  -0.00005510
   0.00553920  -0.00135820  -0.00020500
   0.01930170  -0.00482170  -0.00072330
   0.05987920  -0.01512170  -0.00229100
   0.15492820  -0.04209460  -0.00633030
   0.30748080  -0.09274520  -0.01425690
   0.38406970  -0.16213670  -0.02486820
   0.20491410  -0.11128990  -0.01840200
   0.01892630   0.28499070   0.05207550
  -0.00200990   0.58499840   0.11479500
   0.00101740   0.28258730   0.16748110
  -0.00016710   0.00516160  -0.63269260
   0.00008410  -0.00175670  -0.46603950
* p-type functions
   11    1
       1203.92100000
        279.18010000
         89.50396000
         33.51374000
         13.78494000
          6.05919200
          2.76753800
          1.29691300
          0.64171030
          0.33142390
          0.15156870
   0.00016970
   0.00135790
   0.00730220
   0.02886750
   0.08748840
   0.19281010
   0.29665480
   0.31581560
   0.21748610
   0.09286870
   0.01317580

/Mg.ANO-DK3.Tsuchiya.16s11p.3s1p.
T. Tsuchiya, M. Abe, T. Nakajima, K. Hirao. J. Chem. Phys. 115 (2001) 4463-4472. doi:10.1063/1.1390515
MAGNESIUM (16s,11p) -> [3s,1p]
    12.0   1
* s-type functions
   16    3
    1694068.00000000
     192336.90000000
      39966.58000000
      10658.15000000
       3203.17800000
       1064.46700000
        385.24090000
        149.66940000
         61.39625000
         26.30771000
         11.48114000
          4.16401400
          1.75389900
          0.71374240
          0.11313050
          0.04072101
   0.00004090  -0.00001040  -0.00000200
   0.00016240  -0.00004120  -0.00000790
   0.00050570  -0.00012820  -0.00002470
   0.00166020  -0.00042270  -0.00008150
   0.00569510  -0.00144900  -0.00027860
   0.01890890  -0.00488130  -0.00094350
   0.05692860  -0.01493400  -0.00287290
   0.14641350  -0.04090870  -0.00796350
   0.29482280  -0.09201850  -0.01787030
   0.38339760  -0.16148450  -0.03251370
   0.22323790  -0.13142420  -0.02642020
   0.02522940   0.21879850   0.04777000
  -0.00210280   0.58285430   0.16128110
   0.00111830   0.34940290   0.20173320
  -0.00017400   0.01009940  -0.59619270
   0.00007710  -0.00319120  -0.53273490
* p-type functions
   11    1
       1213.44400000
        274.66330000
         87.11188000
         32.75345000
         13.63020000
          6.03971800
          2.74552300
          1.23835000
          0.90131990
          0.58515990
          0.23001770
  -0.00024790
  -0.00205410
  -0.01088970
  -0.04119370
  -0.11699830
  -0.23731020
  -0.33887110
  -0.34413830
   0.03690740
  -0.16751830
  -0.01843090

/Al.ANO-DK3.Tsuchiya.16s11p.3s2p.
T. Tsuchiya, M. Abe, T. Nakajima, K. Hirao. J. Chem. Phys. 115 (2001) 4463-4472. doi:10.1063/1.1390515
ALUMINIUM (16s,11p) -> [3s,2p]
    13.0   1
* s-type functions
   16    3
    1462948.00000000
     191526.20000000
      37762.87000000
       9845.77900000
       3071.11800000
       1070.89400000
        406.89400000
        165.95320000
         70.83032000
         31.07856000
         13.71447000
          5.11011100
          2.22188600
          0.93876970
          0.18217580
          0.06514961
   0.00005350  -0.00001400  -0.00000320
   0.00019870  -0.00005190  -0.00001200
   0.00068520  -0.00017890  -0.00004120
   0.00218810  -0.00057370  -0.00013290
   0.00701580  -0.00183990  -0.00042270
   0.02183830  -0.00581920  -0.00135420
   0.06120840  -0.01660290  -0.00381020
   0.14770880  -0.04279400  -0.01006430
   0.28826140  -0.09328230  -0.02157740
   0.37635090  -0.16364610  -0.04011290
   0.22463460  -0.13562550  -0.03201890
   0.02692170   0.20837370   0.05239830
  -0.00218370   0.57810540   0.20668970
   0.00115450   0.36235720   0.23176780
  -0.00019520   0.01311230  -0.62625960
   0.00007630  -0.00335450  -0.53165550
* p-type functions
   11    2
       1347.82300000
        313.20780000
         97.61732000
         35.12749000
         13.85010000
          5.73922500
          2.40032000
          0.99561500
          0.33667850
          0.12119170
          0.04248824
   0.00028800  -0.00005190
   0.00230090  -0.00041350
   0.01292280  -0.00233920
   0.05290300  -0.00963230
   0.15727200  -0.02932510
   0.31571610  -0.05957490
   0.40367880  -0.08088080
   0.25512240  -0.04966390
   0.03271970   0.19639350
  -0.00322020   0.55303540
   0.00122760   0.39906690

/Si.ANO-DK3.Tsuchiya.16s11p.3s2p.
T. Tsuchiya, M. Abe, T. Nakajima, K. Hirao. J. Chem. Phys. 115 (2001) 4463-4472. doi:10.1063/1.1390515
SILICON (16s,11p) -> [3s,2p]
    14.0   1
* s-type functions
   16    3
    1453205.00000000
     183024.60000000
      37505.20000000
       9899.25100000
       3067.37900000
       1068.80400000
        406.15850000
        164.87680000
         70.46529000
         31.35984000
         14.24023000
          5.51683100
          2.45715100
          1.09992100
          0.25729500
          0.09153216
   0.00006670  -0.00001780  -0.00000460
   0.00024890  -0.00006660  -0.00001710
   0.00081770  -0.00021880  -0.00005590
   0.00263940  -0.00070920  -0.00018250
   0.00851570  -0.00229180  -0.00058370
   0.02619260  -0.00717050  -0.00185570
   0.07296490  -0.02043930  -0.00519830
   0.17251120  -0.05208870  -0.01366550
   0.31481810  -0.10864110  -0.02786610
   0.35997340  -0.17293090  -0.04804490
   0.17925470  -0.10730980  -0.02677380
   0.01845790   0.26796520   0.07479610
  -0.00119220   0.57481530   0.25825190
   0.00078700   0.30805140   0.21235430
  -0.00014320   0.01179470  -0.64872830
   0.00004550  -0.00223640  -0.53122660
* p-type functions
   11    2
       1761.45000000
        352.27440000
        103.83810000
         36.92634000
         14.69441000
          6.22933500
          2.70582200
          1.17691200
          0.41866660
          0.16047890
          0.05929782
   0.00028320  -0.00006080
   0.00275370  -0.00058650
   0.01603790  -0.00346930
   0.06424060  -0.01390800
   0.17927950  -0.04032090
   0.33137690  -0.07445190
   0.38872780  -0.09762930
   0.21737880  -0.03266050
   0.02461430   0.27182930
  -0.00207690   0.55265790
   0.00088050   0.31928740

/P.ANO-DK3.Tsuchiya.16s11p.3s2p.
T. Tsuchiya, M. Abe, T. Nakajima, K. Hirao. J. Chem. Phys. 115 (2001) 4463-4472. doi:10.1063/1.1390515
PHOSPHORUS (16s,11p) -> [3s,2p]
    15.0   1
* s-type functions
   16    3
    1460247.00000000
     183574.60000000
      37467.91000000
       9873.37300000
       3062.33800000
       1067.66000000
        406.18090000
        164.96500000
         70.41113000
         31.29632000
         14.25950000
          5.57016200
          2.46278000
          1.14102400
          0.33118200
          0.11800560
   0.00007990  -0.00002180  -0.00000600
   0.00029830  -0.00008150  -0.00002240
   0.00098230  -0.00026830  -0.00007360
   0.00316030  -0.00086760  -0.00023940
   0.01014860  -0.00279130  -0.00076340
   0.03100820  -0.00869880  -0.00241290
   0.08513860  -0.02452540  -0.00670780
   0.19630540  -0.06167590  -0.01736320
   0.33968390  -0.12459540  -0.03453780
   0.34364260  -0.18320010  -0.05514200
   0.13546790  -0.06558920  -0.01620650
   0.01007540   0.37283150   0.11999060
  -0.00021210   0.57314920   0.32421530
   0.00033560   0.20053280   0.13375470
  -0.00008160   0.00706420  -0.68055450
   0.00001570  -0.00067520  -0.51121610
* p-type functions
   11    2
       2088.24100000
        449.94810000
        134.83760000
         47.84345000
         18.97445000
          7.99996400
          3.45170800
          1.49909100
          0.54416330
          0.21177930
          0.07941037
   0.00027420  -0.00006560
   0.00236030  -0.00055830
   0.01386460  -0.00334180
   0.05728720  -0.01377950
   0.16708160  -0.04193350
   0.32752870  -0.08226220
   0.40075630  -0.11270470
   0.22460350  -0.03274550
   0.02509350   0.30470420
  -0.00200200   0.55164080
   0.00071550   0.28666300

/S.ANO-DK3.Tsuchiya.16s11p.3s2p.
T. Tsuchiya, M. Abe, T. Nakajima, K. Hirao. J. Chem. Phys. 115 (2001) 4463-4472. doi:10.1063/1.1390515
SULFUR (16s,11p) -> [3s,2p]
    16.0   1
* s-type functions
   16    3
    1462490.00000000
     183186.00000000
      37362.93000000
       9835.62300000
       3056.18100000
       1066.60200000
        405.70210000
        165.15130000
         70.53646000
         31.09308000
         13.78674000
          5.62847000
          2.43161300
          1.01602200
          0.38879040
          0.14182360
   0.00009490  -0.00002640  -0.00000770
   0.00035470  -0.00009860  -0.00002870
   0.00116690  -0.00032460  -0.00009420
   0.00374620  -0.00104730  -0.00030480
   0.01194360  -0.00335120  -0.00097150
   0.03631680  -0.01040180  -0.00303930
   0.09823490  -0.02908250  -0.00845630
   0.21937670  -0.07145820  -0.02118130
   0.35979050  -0.14067370  -0.04183340
   0.32490120  -0.18958650  -0.06012270
   0.09626700  -0.01325180  -0.00177050
   0.00308130   0.47273530   0.17839150
   0.00119350   0.55933490   0.38059070
  -0.00035710   0.10136940   0.01263800
   0.00011590  -0.00129760  -0.71701430
  -0.00004220   0.00104330  -0.45530980
* p-type functions
   11    2
       2028.21700000
        462.07420000
        147.52100000
         55.02612000
         22.47825000
          9.67240700
          4.24377000
          1.86722100
          0.68571640
          0.26217470
          0.09507272
   0.00036410   0.00009350
   0.00278230   0.00070430
   0.01453420   0.00376630
   0.05657530   0.01457330
   0.16231560   0.04389710
   0.32047200   0.08643640
   0.40039620   0.12233510
   0.23016400   0.02954940
   0.02682640  -0.32707100
  -0.00164920  -0.54391830
   0.00094150  -0.27924920

/Cl.ANO-DK3.Tsuchiya.16s11p.3s2p.
T. Tsuchiya, M. Abe, T. Nakajima, K. Hirao. J. Chem. Phys. 115 (2001) 4463-4472. doi:10.1063/1.1390515
CHLORINE (16s,11p) -> [3s,2p]
    17.0   1
* s-type functions
   16    3
    1468138.00000000
     181614.20000000
      37093.82000000
       9830.17600000
       3053.59100000
       1065.66500000
        405.23290000
        165.11050000
         70.76446000
         30.96481000
         12.78167000
          5.63250000
          2.46082600
          0.83277000
          0.38426000
          0.15207480
   0.00011180  -0.00003160  -0.00000950
   0.00042110  -0.00011890  -0.00003600
   0.00136990  -0.00038740  -0.00011730
   0.00437310  -0.00124140  -0.00037570
   0.01393790  -0.00398390  -0.00120820
   0.04205250  -0.01225760  -0.00371670
   0.11226420  -0.03415060  -0.01042560
   0.24224330  -0.08154920  -0.02504990
   0.37281660  -0.15593810  -0.04922840
   0.30188210  -0.18755830  -0.06123760
   0.06607230   0.05561720   0.01892920
  -0.00293900   0.54407520   0.24156520
   0.00236490   0.49680490   0.37631210
  -0.00096420   0.05587490  -0.19714960
   0.00049720  -0.00945820  -0.69256650
  -0.00013590   0.00246780  -0.32849640
* p-type functions
   11    2
       2182.65500000
        467.49890000
        144.75210000
         53.80576000
         22.30290000
          9.75713300
          4.38899500
          1.99357900
          0.78229290
          0.30360500
          0.11144440
   0.00043050   0.00011660
   0.00358510   0.00096340
   0.01906120   0.00521750
   0.07099650   0.01950110
   0.18902800   0.05437880
   0.34337440   0.09944060
   0.38168350   0.12592610
   0.18332060  -0.00597080
   0.01835110  -0.36389860
   0.00016050  -0.52267030
   0.00068000  -0.25197930

/Ar.ANO-DK3.Tsuchiya.16s11p.3s2p.
T. Tsuchiya, M. Abe, T. Nakajima, K. Hirao. J. Chem. Phys. 115 (2001) 4463-4472. doi:10.1063/1.1390515
ARGON (16s,11p) -> [3s,2p]
    18.0   1
* s-type functions
   16    3
     905946.54000000
     135678.33000000
      30875.15300000
       8743.57470000
       2851.51820000
       1028.78900000
        400.62368000
        165.43793000
         71.44087600
         31.59342000
         12.90975800
          5.93924940
          2.68269890
          0.94345618
          0.42511714
          0.17179354
   0.00017930  -0.00005130  -0.00001600
   0.00057180  -0.00016370  -0.00005120
   0.00178620  -0.00051260  -0.00016040
   0.00546390  -0.00157310  -0.00049150
   0.01674810  -0.00487090  -0.00152800
   0.04875780  -0.01445910  -0.00452530
   0.12562970  -0.03923320  -0.01241040
   0.26226610  -0.09121030  -0.02895420
   0.37695790  -0.16794300  -0.05530330
   0.27051080  -0.17512240  -0.05910780
   0.04964310   0.10885620   0.03847300
  -0.00351050   0.56313110   0.27729900
   0.00215690   0.44556950   0.35869650
  -0.00085370   0.04466560  -0.27832910
   0.00040170  -0.00573140  -0.68083380
  -0.00011510   0.00179620  -0.28065060
* p-type functions
   11    2
       1868.80670000
        442.94722000
        143.19547000
         54.01386600
         22.37890500
          9.73965610
          4.36100830
          1.95855640
          0.82555522
          0.32961519
          0.12421539
   0.00064580   0.00018090
   0.00463540   0.00129700
   0.02331010   0.00660770
   0.08481590   0.02439360
   0.21855010   0.06536390
   0.37397210   0.11523190
   0.36436180   0.12275840
   0.12841260  -0.06602300
   0.00695780  -0.40369560
   0.00081140  -0.48977530
  -0.00014580  -0.20858000

/K.ANO-DK3.Tsuchiya.20s15p.4s2p.
T. Tsuchiya, M. Abe, T. Nakajima, K. Hirao. J. Chem. Phys. 115 (2001) 4463-4472. doi:10.1063/1.1390515
POTASSIUM (20s,15p) -> [4s,2p]
    19.0   1
* s-type functions
   20    4
   14612300.00000000
    1741461.00000000
     336176.10000000
      84319.95000000
      25264.47000000
       8625.91500000
       3220.93400000
       1285.78600000
        543.60000000
        240.31470000
        109.70850000
         51.44194000
         24.48655000
         10.39178000
          4.91515200
          2.37315800
          0.87295440
          0.37526360
          0.16715900
          0.02767764
   0.00002660  -0.00000770  -0.00000250  -0.00000050
   0.00009610  -0.00002780  -0.00000920  -0.00000180
   0.00028740  -0.00008330  -0.00002740  -0.00000530
   0.00078700  -0.00022840  -0.00007540  -0.00001460
   0.00208050  -0.00060440  -0.00019890  -0.00003810
   0.00552000  -0.00161360  -0.00053370  -0.00010390
   0.01492130  -0.00438470  -0.00144200  -0.00027460
   0.03920410  -0.01177710  -0.00391450  -0.00076760
   0.09453820  -0.02937760  -0.00969490  -0.00183190
   0.19759680  -0.06712030  -0.02265600  -0.00449080
   0.32158460  -0.12834170  -0.04331400  -0.00807980
   0.32440530  -0.18228970  -0.06565800  -0.01349050
   0.14229350  -0.08127990  -0.02782990  -0.00393080
   0.01384010   0.32225220   0.13264970   0.02261530
  -0.00057830   0.57706400   0.38302880   0.08831670
   0.00046260   0.25010910   0.20306310   0.02799820
  -0.00021110   0.01688980  -0.56810650  -0.11003220
   0.00007000  -0.00166160  -0.59391070  -0.28321830
  -0.00003010   0.00086550  -0.09107560  -0.03728290
   0.00000330  -0.00008400  -0.00101920   1.07591910
* p-type functions
   15    2
     110820.40000000
      14565.15000000
       3330.81100000
       1019.03100000
        367.97120000
        147.80250000
         64.06259000
         29.41803000
         13.98079000
          6.77809800
          3.31997200
          1.54605100
          0.71067870
          0.31792930
          0.13372930
   0.00000590  -0.00000180
   0.00004160  -0.00001270
   0.00024620  -0.00007490
   0.00130230  -0.00039870
   0.00594670  -0.00181890
   0.02261990  -0.00700910
   0.07015610  -0.02203020
   0.16982910  -0.05524350
   0.30252590  -0.10097790
   0.36249980  -0.13134780
   0.22415020  -0.04820410
   0.04372750   0.22926320
   0.00019450   0.45996550
   0.00069210   0.37918730
  -0.00015750   0.08967270

/Ca.ANO-DK3.Tsuchiya.20s15p.4s2p.
T. Tsuchiya, M. Abe, T. Nakajima, K. Hirao. J. Chem. Phys. 115 (2001) 4463-4472. doi:10.1063/1.1390515
CALCIUM (20s,15p) -> [4s,2p]
    20.0   1
* s-type functions
   20    4
   15429060.00000000
    1717766.00000000
     325290.80000000
      83104.29000000
      25219.11000000
       8662.80000000
       3220.96700000
       1283.73800000
        543.45920000
        240.83900000
        109.96770000
         51.34453000
         24.28419000
         10.50093000
          4.92292300
          2.34060700
          0.92145250
          0.38267100
          0.06533290
          0.02618455
   0.00003010  -0.00000880  -0.00000300  -0.00000070
   0.00011450  -0.00003350  -0.00001160  -0.00000280
   0.00033720  -0.00009880  -0.00003410  -0.00000810
   0.00090080  -0.00026450  -0.00009130  -0.00002180
   0.00236280  -0.00069460  -0.00023940  -0.00005720
   0.00627550  -0.00185700  -0.00064230  -0.00015370
   0.01704510  -0.00507610  -0.00174940  -0.00041760
   0.04436900  -0.01353410  -0.00470280  -0.00112640
   0.10535180  -0.03339000  -0.01156470  -0.00276190
   0.21481180  -0.07507350  -0.02652170  -0.00636760
   0.33565270  -0.14038270  -0.04999140  -0.01197290
   0.30984390  -0.18656780  -0.07070380  -0.01714700
   0.11219790  -0.04370620  -0.01519200  -0.00353880
   0.00765990   0.40063650   0.18454860   0.04556550
   0.00034930   0.56940370   0.43742900   0.11637760
  -0.00003420   0.17612420   0.10712780   0.02483930
  -0.00004170   0.00794330  -0.70907080  -0.22980380
  -0.00001530   0.00046900  -0.52415060  -0.33519360
   0.00000090   0.00007150  -0.01467310   0.67146420
  -0.00000050  -0.00003010   0.00461320   0.49198000
* p-type functions
   15    2
      51912.48000000
       8887.83300000
       2423.37000000
        833.83440000
        329.65730000
        142.47560000
         65.46554000
         31.43317000
         15.49410000
          7.76511500
          3.92498500
          1.92437000
          0.91383950
          0.42021050
          0.17575970
   0.00001460  -0.00000470
   0.00008490  -0.00002770
   0.00043550  -0.00014190
   0.00199010  -0.00065110
   0.00786720  -0.00257960
   0.02651660  -0.00879950
   0.07525830  -0.02540870
   0.17136890  -0.05979920
   0.29445780  -0.10597860
   0.34934990  -0.13532370
   0.22236320  -0.05497900
   0.04987800   0.21332670
   0.00159170   0.46578300
   0.00045970   0.38983550
  -0.00011540   0.08527980

/Sc.ANO-DK3.Tsuchiya.20s15p9d.4s2p1d.
T. Tsuchiya, M. Abe, T. Nakajima, K. Hirao. J. Chem. Phys. 115 (2001) 4463-4472. doi:10.1063/1.1390515
SCANDIUM (20s,15p,9d) -> [4s,2p,1d]
    21.0   2
* s-type functions
   20    4
   12809350.00000000
    1543198.00000000
     309741.60000000
      82804.01000000
      25477.23000000
       8662.39700000
       3209.42400000
       1277.85400000
        544.18700000
        241.56850000
        110.06900000
         51.22249000
         23.85044000
         10.65195000
          4.95127700
          2.20128400
          0.99520890
          0.42603180
          0.07634914
          0.02966669
   0.00003870  -0.00001140  -0.00000400  -0.00000100
   0.00013700  -0.00004060  -0.00001430  -0.00000340
   0.00038610  -0.00011440  -0.00004030  -0.00000960
   0.00100200  -0.00029740  -0.00010480  -0.00002490
   0.00267320  -0.00079460  -0.00028010  -0.00006660
   0.00716830  -0.00214480  -0.00075680  -0.00018000
   0.01939040  -0.00584910  -0.00206500  -0.00049160
   0.04988760  -0.01543480  -0.00546730  -0.00129970
   0.11587600  -0.03745240  -0.01331980  -0.00317680
   0.23253750  -0.08351850  -0.03008100  -0.00715840
   0.34674760  -0.15230480  -0.05609960  -0.01346100
   0.29146750  -0.18633120  -0.07200610  -0.01721600
   0.08650390  -0.00081520   0.00009680  -0.00023430
   0.00296630   0.46715660   0.23804290   0.06011170
   0.00116230   0.54879090   0.45764740   0.12030990
  -0.00048570   0.11821310   0.00138240  -0.00219510
   0.00016350  -0.00077640  -0.72788290  -0.24756040
  -0.00007610   0.00195340  -0.47182960  -0.30592610
   0.00001460  -0.00021460  -0.01318910   0.65505200
  -0.00000650   0.00009580   0.00390870   0.51021730
* p-type functions
   15    2
      52100.92000000
       8878.35600000
       2420.28300000
        833.95720000
        329.71210000
        142.48480000
         65.47393000
         31.44028000
         15.48991000
          7.76982200
          3.92629200
          1.90393800
          0.90668620
          0.42230460
          0.17530430
   0.00001770  -0.00000590
   0.00010350  -0.00003480
   0.00052800  -0.00017740
   0.00239980  -0.00081070
   0.00942880  -0.00319110
   0.03145580  -0.01080290
   0.08768410  -0.03068240
   0.19305080  -0.07007540
   0.31639780  -0.11881750
   0.34238560  -0.13865230
   0.18390430  -0.01177850
   0.03164760   0.28837320
   0.00057830   0.47882570
   0.00038840   0.31672190
  -0.00006950   0.05206940
* d-type functions
    9    1
        125.98350000
         36.09441000
         13.19322000
          5.29089600
          2.27671900
          0.99784630
          0.43224480
          0.18104010
          0.07055681
   0.00077950
   0.00682560
   0.03082030
   0.09601280
   0.21129640
   0.31831560
   0.35353790
   0.26249350
   0.08724560

/Ti.ANO-DK3.Tsuchiya.20s15p9d.4s2p1d.
T. Tsuchiya, M. Abe, T. Nakajima, K. Hirao. J. Chem. Phys. 115 (2001) 4463-4472. doi:10.1063/1.1390515
TITANIUM (20s,15p,9d) -> [4s,2p,1d]
    22.0   2
* s-type functions
   20    4
   16528400.00000000
    1855243.00000000
     342340.70000000
      83105.73000000
      24246.96000000
       8130.01700000
       3047.99300000
       1249.99400000
        546.15680000
        248.48620000
        116.29540000
         55.60417000
         26.72093000
         12.45963000
          6.05687400
          2.94103200
          1.19286700
          0.49985810
          0.08340673
          0.03200167
   0.00003710  -0.00001110  -0.00000400  -0.00000090
   0.00014060  -0.00004200  -0.00001500  -0.00000350
   0.00043160  -0.00012910  -0.00004620  -0.00001080
   0.00120530  -0.00036110  -0.00012930  -0.00003010
   0.00324880  -0.00097580  -0.00034900  -0.00008130
   0.00864610  -0.00261410  -0.00093780  -0.00021860
   0.02245730  -0.00686270  -0.00245560  -0.00057220
   0.05511900  -0.01729240  -0.00623930  -0.00145500
   0.12356880  -0.04070970  -0.01466190  -0.00342110
   0.23673990  -0.08691930  -0.03199720  -0.00747560
   0.33789310  -0.15261790  -0.05684280  -0.01333420
   0.27773850  -0.17981810  -0.07176730  -0.01689800
   0.08585630  -0.00743750  -0.00035580  -0.00015540
   0.00416560   0.41919640   0.20859940   0.05116450
   0.00099280   0.54572530   0.45231850   0.11688760
  -0.00031550   0.16915050   0.07584090   0.01741530
   0.00004860   0.00770060  -0.72095400  -0.23626470
  -0.00004270   0.00070430  -0.50976140  -0.30875220
   0.00000700   0.00002640  -0.01528850   0.65128740
  -0.00000320  -0.00000800   0.00481790   0.50573230
* p-type functions
   15    2
      47945.46000000
       8268.52300000
       2266.63800000
        782.83370000
        310.41640000
        134.54730000
         62.28711000
         30.40453000
         15.57505000
          8.43177000
          4.64797700
          2.45024700
          1.20180100
          0.55920010
          0.23479650
   0.00002320  -0.00000800
   0.00013610  -0.00004680
   0.00069850  -0.00024040
   0.00316420  -0.00109100
   0.01225640  -0.00425690
   0.03996460  -0.01405380
   0.10594750  -0.03827780
   0.21398430  -0.07986320
   0.30651330  -0.11978200
   0.29566510  -0.12095210
   0.17482900  -0.02452350
   0.04269410   0.22796130
   0.00235360   0.46392470
   0.00041860   0.37468720
  -0.00002110   0.08108300
* d-type functions
    9    1
        171.27790000
         47.91170000
         17.36954000
          6.96942000
          3.01034800
          1.32922700
          0.57895860
          0.24441550
          0.09559112
   0.00059850
   0.00569210
   0.02773460
   0.08953590
   0.20559250
   0.32060070
   0.35771580
   0.26150040
   0.08671700

/V.ANO-DK3.Tsuchiya.20s15p9d.4s2p1d.
T. Tsuchiya, M. Abe, T. Nakajima, K. Hirao. J. Chem. Phys. 115 (2001) 4463-4472. doi:10.1063/1.1390515
VANADIUM (20s,15p,9d) -> [4s,2p,1d]
    23.0   2
* s-type functions
   20    4
   16668050.00000000
    1856605.00000000
     341192.60000000
      82515.82000000
      24055.78000000
       8076.20200000
       3038.15100000
       1250.36700000
        546.60870000
        248.55880000
        116.41900000
         55.48473000
         26.32949000
         12.52424000
          6.06800700
          2.88320200
          1.26338400
          0.53766090
          0.09250674
          0.03468118
   0.00004180  -0.00001260  -0.00000460  -0.00000100
   0.00015940  -0.00004800  -0.00001740  -0.00000400
   0.00048990  -0.00014780  -0.00005350  -0.00001220
   0.00136900  -0.00041370  -0.00014980  -0.00003420
   0.00367980  -0.00111570  -0.00040400  -0.00009220
   0.00973920  -0.00297260  -0.00107790  -0.00024570
   0.02505870  -0.00774590  -0.00281040  -0.00064170
   0.06093120  -0.01935600  -0.00705360  -0.00160750
   0.13532980  -0.04543860  -0.01663540  -0.00380720
   0.25259710  -0.09525260  -0.03542790  -0.00808230
   0.34328880  -0.16269240  -0.06204620  -0.01431040
   0.25782470  -0.17468100  -0.07037450  -0.01610360
   0.06541350   0.03811220   0.01763460   0.00373420
   0.00178800   0.47717840   0.25969460   0.06352510
   0.00094620   0.51449690   0.45446960   0.11443410
  -0.00032950   0.11896870  -0.02043590  -0.00747360
   0.00005930   0.00375310  -0.73443390  -0.24331000
  -0.00003960   0.00104230  -0.46141150  -0.28160200
   0.00000620  -0.00003200  -0.01243330   0.63648150
  -0.00000270   0.00001650   0.00368090   0.51979610
* p-type functions
   15    2
      47689.83000000
       8218.33900000
       2263.73800000
        784.02370000
        310.13700000
        134.58010000
         62.32746000
         30.36192000
         15.54765000
          8.47690400
          4.72161800
          2.43199900
          1.19636900
          0.56242860
          0.23621200
   0.00002790  -0.00000980
   0.00016350  -0.00005720
   0.00082720  -0.00028950
   0.00374320  -0.00131510
   0.01443230  -0.00510360
   0.04632060  -0.01664240
   0.12066820  -0.04456230
   0.23596840  -0.09047820
   0.31938170  -0.12825870
   0.27677600  -0.11485700
   0.14745240   0.01472330
   0.03051240   0.28499090
   0.00078440   0.46668190
   0.00057940   0.31875680
  -0.00005380   0.05660020
* d-type functions
    9    1
        182.17040000
         52.71058000
         19.60446000
          8.07209300
          3.55093700
          1.59427800
          0.70512720
          0.30065250
          0.11757850
   0.00069170
   0.00615750
   0.02882870
   0.09101810
   0.20647150
   0.31829540
   0.35231540
   0.25973130
   0.08936380

/Cr.ANO-DK3.Tsuchiya.20s15p9d.4s2p1d.
T. Tsuchiya, M. Abe, T. Nakajima, K. Hirao. J. Chem. Phys. 115 (2001) 4463-4472. doi:10.1063/1.1390515
CHROMIUM (20s,15p,9d) -> [4s,2p,1d]
    24.0   2
* s-type functions
   20    4
   16720450.00000000
    1856233.00000000
     340116.40000000
      82251.29000000
      23952.95000000
       8038.81400000
       3035.99900000
       1250.36500000
        546.81130000
        248.51830000
        116.46040000
         55.59639000
         25.62823000
         12.57452000
          6.13232800
          2.76389400
          1.26988900
          0.54046700
          0.09133041
          0.03405270
   0.00004710  -0.00001430  -0.00000520  -0.00000110
   0.00017980  -0.00005460  -0.00001980  -0.00000420
   0.00055230  -0.00016790  -0.00006090  -0.00001300
   0.00153940  -0.00046900  -0.00017010  -0.00003630
   0.00414280  -0.00126710  -0.00045990  -0.00009820
   0.01088970  -0.00335320  -0.00121760  -0.00025990
   0.02778080  -0.00868070  -0.00315900  -0.00067550
   0.06722400  -0.02161510  -0.00788640  -0.00168210
   0.14717730  -0.05035090  -0.01852100  -0.00397170
   0.26833000  -0.10394620  -0.03875920  -0.00827440
   0.34438930  -0.17140090  -0.06607550  -0.01429740
   0.23618350  -0.16424480  -0.06639390  -0.01417770
   0.05038420   0.09031730   0.04050940   0.00837080
  -0.00105480   0.51622640   0.30139200   0.06960240
   0.00151990   0.47402580   0.43298470   0.10214260
  -0.00063030   0.08529510  -0.13364150  -0.03607960
   0.00021380  -0.00092710  -0.73231570  -0.23874550
  -0.00007980   0.00160230  -0.39254670  -0.22598770
   0.00001480  -0.00004390  -0.01012240   0.60488130
  -0.00000640   0.00016710   0.00330900   0.53638140
* p-type functions
   15    2
      45934.30000000
       8199.42100000
       2271.09600000
        783.80960000
        309.84540000
        134.63880000
         62.37166000
         30.30536000
         15.54366000
          8.50855400
          4.76158400
          2.44010900
          1.19846800
          0.56275310
          0.23645220
   0.00003390  -0.00001190
   0.00019150  -0.00006720
   0.00097350  -0.00034190
   0.00440580  -0.00155440
   0.01683710  -0.00598180
   0.05321460  -0.01925240
   0.13626020  -0.05075490
   0.25744510  -0.09990460
   0.32713640  -0.13324690
   0.25745150  -0.10302300
   0.12048670   0.05480310
   0.02132570   0.32503150
   0.00056050   0.45156680
   0.00054550   0.27952940
   0.00000880   0.04880110
* d-type functions
    9    1
        236.90590000
         61.08905000
         21.34096000
          8.39968200
          3.57567200
          1.54471200
          0.65044710
          0.26032020
          0.09601058
   0.00053460
   0.00591250
   0.03080680
   0.10106580
   0.22334510
   0.32594700
   0.34196100
   0.26049110
   0.10462370

/Mn.ANO-DK3.Tsuchiya.20s15p9d.4s2p1d.
T. Tsuchiya, M. Abe, T. Nakajima, K. Hirao. J. Chem. Phys. 115 (2001) 4463-4472. doi:10.1063/1.1390515
MANGANESE (20s,15p,9d) -> [4s,2p,1d]
    25.0   2
* s-type functions
   20    4
   16703496.00000000
    1869011.50000000
     339227.63000000
      81300.73600000
      23685.41900000
       7984.17590000
       3026.37260000
       1252.08320000
        547.09397000
        248.25246000
        116.46300000
         55.81182800
         25.81883000
         12.57469400
          6.16163070
          2.78226940
          1.31192020
          0.58899907
          0.10974191
        396.30428e-4
   0.00005270  -0.00001610  -0.00000590  -0.00000130
   0.00020070  -0.00006140  -0.00002260  -0.00000490
   0.00062390  -0.00019110  -0.00007040  -0.00001530
   0.00174250  -0.00053490  -0.00019700  -0.00004290
   0.00464780  -0.00143260  -0.00052810  -0.00011520
   0.01214290  -0.00377240  -0.00139080  -0.00030280
   0.03066140  -0.00967110  -0.00357680  -0.00078190
   0.07349870  -0.02393770  -0.00886950  -0.00192840
   0.15974480  -0.05557000  -0.02080550  -0.00456560
   0.28305280  -0.11295590  -0.04285410  -0.00931680
   0.34257090  -0.17815350  -0.07030900  -0.01562020
   0.21205550  -0.15153630  -0.06241580  -0.01343220
   0.03837190   0.14397160   0.06656150   0.01400570
  -0.00073490   0.55436730   0.35123770   0.08452020
   0.00100210   0.41613430   0.39879540   0.09397520
  -0.00043990   0.06102820  -0.23412940  -0.06089590
   0.00014330  -0.00047350  -0.71501150  -0.25001380
  -0.00005800   0.00125180  -0.33933280  -0.21564740
   0.00000990  -0.00009840  -0.00784110   0.61535300
  -0.00000400   0.00004130   0.00211580   0.53837390
* p-type functions
   15    2
      48651.15400000
       8367.38130000
       2285.29100000
        786.35173000
        310.87259000
        134.69393000
         62.34761300
         30.31535300
         15.40031900
          8.22925470
          4.64583240
          2.59833470
          0.28611961
          0.66928457
          1.37047450
   0.00003810  -0.00001360
   0.00022230  -0.00007980
   0.00113560  -0.00040830
   0.00510490  -0.00184210
   0.01939660  -0.00706420
   0.06099880  -0.02263250
   0.15188740  -0.05826400
   0.27793070  -0.11103710
   0.34247190  -0.14505980
   0.23698640  -0.08273530
   0.08313120   0.09569980
   0.01533810   0.30404680
   0.00000440   0.05071420
   0.00046700   0.28487190
   0.00091700   0.42773920
* d-type functions
    9    1
        201.13773000
         59.69776700
         22.71220600
          9.55081160
          4.27919420
          1.94927700
          0.87236600
          0.37511423
          0.14742170
   0.00093390
   0.00774920
   0.03457690
   0.10524060
   0.22459330
   0.32595490
   0.34005610
   0.23639870
   0.07624800

/Fe.ANO-DK3.Tsuchiya.20s15p9d.4s2p1d.
T. Tsuchiya, M. Abe, T. Nakajima, K. Hirao. J. Chem. Phys. 115 (2001) 4463-4472. doi:10.1063/1.1390515
IRON (20s,15p,9d) -> [4s,2p,1d]
    26.0   2
* s-type functions
   20    4
   67207850.00000000
    7313546.00000000
    1289856.00000000
     297297.80000000
      82030.03000000
      25799.18000000
       8956.74800000
       3359.59600000
       1341.95000000
        564.58810000
        248.37920000
        113.50840000
         53.09401000
         22.31520000
         10.71686000
          5.19571800
          1.93017700
          0.77996100
          0.11510950
          0.04166107
   0.00002120  -0.00000650  -0.00000240  -0.00000050
   0.00008110  -0.00002500  -0.00000930  -0.00000200
   0.00024920  -0.00007680  -0.00002850  -0.00000610
   0.00068230  -0.00021060  -0.00007820  -0.00001680
   0.00177070  -0.00054720  -0.00020300  -0.00004370
   0.00454530  -0.00141210  -0.00052570  -0.00011330
   0.01184200  -0.00369920  -0.00137130  -0.00029490
   0.03102910  -0.00987320  -0.00369350  -0.00079680
   0.07817680  -0.02560890  -0.00952560  -0.00204940
   0.17436360  -0.06168960  -0.02343620  -0.00506580
   0.30727530  -0.12552760  -0.04778190  -0.01031010
   0.34822060  -0.19395280  -0.07875090  -0.01717210
   0.18125870  -0.11926330  -0.04784590  -0.01037180
   0.02159330   0.30337890   0.14710750   0.03272670
  -0.00189770   0.59613140   0.46709410   0.11113450
   0.00084040   0.26152570   0.18043530   0.04135270
  -0.00030500   0.01732320  -0.71923100  -0.21557300
   0.00007220  -0.00060590  -0.53907940  -0.28591610
  -0.00001770   0.00029300  -0.01610110   0.62044680
   0.00000800  -0.00012720   0.00526020   0.52047310
* p-type functions
   15    2
      48583.31000000
       8366.09400000
       2284.63500000
        785.75470000
        310.94600000
        134.69170000
         62.34485000
         30.29293000
         15.39223000
          8.22827600
          4.65259900
          2.57949200
          1.36368900
          0.67283420
          0.28677540
   0.00004450   0.00001620
   0.00025910   0.00009410
   0.00132280   0.00048130
   0.00590770   0.00215990
   0.02226100   0.00821660
   0.06921270   0.02609530
   0.16826400   0.06567170
   0.29699470   0.12124070
   0.34257950   0.14753050
   0.21206540   0.06015500
   0.06486530  -0.13665330
   0.01054930  -0.33711650
   0.00066460  -0.41103630
   0.00040860  -0.24077370
   0.00001160  -0.03679590
* d-type functions
    9    1
        273.06550000
         80.26400000
         30.24102000
         12.61650000
          5.60439500
          2.52570400
          1.10501300
          0.45984990
          0.17386000
   0.00062560
   0.00550400
   0.02691660
   0.08775410
   0.20317620
   0.31908620
   0.35380020
   0.26440920
   0.09711270

/Co.ANO-DK3.Tsuchiya.20s15p9d.4s2p1d.
T. Tsuchiya, M. Abe, T. Nakajima, K. Hirao. J. Chem. Phys. 115 (2001) 4463-4472. doi:10.1063/1.1390515
COBALT (20s,15p,9d) -> [4s,2p,1d]
    27.0   2
* s-type functions
   20    4
   68378190.00000000
    7369246.00000000
    1295428.00000000
     298106.10000000
      82220.14000000
      25822.90000000
       8963.18400000
       3362.10200000
       1342.23800000
        564.71420000
        248.26660000
        113.46470000
         53.26765000
         22.57700000
         10.72737000
          5.12675900
          2.04545200
          0.83355690
          0.12595560
          0.04489064
   0.00002340  -0.00000720  -0.00000270  -0.00000060
   0.00009010  -0.00002790  -0.00001040  -0.00000220
   0.00027660  -0.00008580  -0.00003200  -0.00000680
   0.00075610  -0.00023490  -0.00008780  -0.00001860
   0.00195980  -0.00060960  -0.00022770  -0.00004830
   0.00502650  -0.00157280  -0.00058890  -0.00012500
   0.01303940  -0.00410370  -0.00153310  -0.00032510
   0.03404910  -0.01093310  -0.00411170  -0.00087320
   0.08512310  -0.02819730  -0.01058390  -0.00224610
   0.18710780  -0.06737250  -0.02573730  -0.00547460
   0.32029720  -0.13459360  -0.05191080  -0.01106140
   0.34035690  -0.19868450  -0.08131670  -0.01743200
   0.15744730  -0.09432390  -0.03863730  -0.00835550
   0.01556450   0.36271590   0.18737550   0.04166330
  -0.00106970   0.59532260   0.48972850   0.11482650
   0.00048620   0.20543820   0.10510710   0.02282900
  -0.00021240   0.01058190  -0.73652690  -0.22069090
   0.00004140   0.00052410  -0.50848530  -0.27040690
  -0.00001040   0.00007890  -0.01466310   0.60322160
   0.00000460  -0.00003050   0.00464160   0.53745240
* p-type functions
   15    2
      48963.14000000
       8345.68700000
       2279.93600000
        785.83140000
        310.81170000
        134.74590000
         62.33225000
         30.24797000
         15.39023000
          8.23764400
          4.65872400
          2.56847600
          1.35728200
          0.67620240
          0.28847480
   0.00005150   0.00001890
   0.00030230   0.00011090
   0.00152840   0.00056180
   0.00679340   0.00251100
   0.02540840   0.00948560
   0.07787740   0.02977600
   0.18532640   0.07343590
   0.31455000   0.13096980
   0.33740850   0.14641790
   0.18723140   0.03373830
   0.05017960  -0.17463270
   0.00728710  -0.36232070
   0.00060820  -0.38954920
   0.00033560  -0.20149640
   0.00001960  -0.02727860
* d-type functions
    9    1
        275.37830000
         80.65816000
         30.23299000
         12.61128000
          5.61611000
          2.52538400
          1.10520200
          0.46148340
          0.17550980
   0.00076480
   0.00672310
   0.03232610
   0.10215450
   0.22357390
   0.32881980
   0.34201040
   0.24229010
   0.08432010

/Ni.ANO-DK3.Tsuchiya.20s15p9d.4s2p1d.
T. Tsuchiya, M. Abe, T. Nakajima, K. Hirao. J. Chem. Phys. 115 (2001) 4463-4472. doi:10.1063/1.1390515
NICKEL (20s,15p,9d) -> [4s,2p,1d]
    28.0   2
* s-type functions
   20    4
   68573180.00000000
    7371292.00000000
    1301782.00000000
     298708.50000000
      82337.35000000
      25855.37000000
       8964.77700000
       3364.19400000
       1342.58400000
        564.56870000
        248.27240000
        113.30310000
         53.05616000
         22.81134000
         10.67793000
          4.88033300
          2.10786900
          0.86988690
          0.13673590
          0.04789240
   0.00002600  -0.00000810  -0.00000300  -0.00000060
   0.00009980  -0.00003110  -0.00001170  -0.00000240
   0.00030540  -0.00009530  -0.00003580  -0.00000750
   0.00083690  -0.00026150  -0.00009830  -0.00002050
   0.00216060  -0.00067640  -0.00025420  -0.00005310
   0.00553790  -0.00174440  -0.00065630  -0.00013710
   0.01432430  -0.00454110  -0.00170830  -0.00035710
   0.03719090  -0.01204480  -0.00454870  -0.00095040
   0.09240110  -0.03095540  -0.01171840  -0.00245340
   0.19987610  -0.07322050  -0.02809040  -0.00587500
   0.33168300  -0.14347970  -0.05607160  -0.01180660
   0.33167120  -0.20239880  -0.08326340  -0.01750980
   0.13469830  -0.06612300  -0.02806220  -0.00618090
   0.01029590   0.42137340   0.23146430   0.05143510
  -0.00017550   0.58826600   0.50310540   0.11578020
   0.00008090   0.15330450   0.01466600   0.00150610
  -0.00007760   0.00298940  -0.75330370  -0.22873790
   0.00000190   0.00160540  -0.46068740  -0.24850980
  -0.00000180  -0.00012150  -0.01191430   0.59213300
   0.00000080   0.00005560   0.00354310   0.54915930
* p-type functions
   15    2
      51568.33000000
       8804.86300000
       2375.40100000
        803.17640000
        311.53830000
        133.46270000
         61.71268000
         30.02718000
         15.14723000
          7.82462400
          4.14289900
          2.31968400
          1.38149300
          0.73143950
          0.31313330
   0.00005610   0.00002070
   0.00032580   0.00012060
   0.00167490   0.00062120
   0.00766130   0.00285770
   0.02928080   0.01104870
   0.08893270   0.03443430
   0.20327330   0.08178950
   0.33145730   0.14047090
   0.33672520   0.14583490
   0.16268210  -0.01730330
   0.02849920  -0.26689940
   0.00317700  -0.33154290
   0.00036390  -0.31096150
   0.00036030  -0.18990920
   0.00002380  -0.02673120
* d-type functions
    9    1
        283.45150000
         80.78547000
         30.18100000
         12.62223000
          5.62074200
          2.52428700
          1.10484700
          0.46236340
          0.17701300
   0.00090970
   0.00820870
   0.03821330
   0.11723220
   0.24262820
   0.33488510
   0.32988410
   0.22181210
   0.07287890

/Cu.ANO-DK3.Tsuchiya.20s15p9d.4s2p1d.
T. Tsuchiya, M. Abe, T. Nakajima, K. Hirao. J. Chem. Phys. 115 (2001) 4463-4472. doi:10.1063/1.1390515
COPPER (20s,15p,9d) -> [4s,2p,1d]
    29.0   2
* s-type functions
   20    4
   67793730.00000000
    7402227.00000000
    1308011.00000000
     300535.80000000
      82258.00000000
      25879.87000000
       8976.53100000
       3367.56500000
       1342.89600000
        564.18310000
        248.11230000
        113.00260000
         52.54773000
         23.16170000
         10.75672000
          4.64239600
          2.07799300
          0.85188350
          0.11547540
          0.04052983
   0.00002890  -0.00000910  -0.00000340  -0.00000060
   0.00010980  -0.00003440  -0.00001290  -0.00000230
   0.00033550  -0.00010530  -0.00003950  -0.00000700
   0.00092230  -0.00028990  -0.00010880  -0.00001920
   0.00238560  -0.00075140  -0.00028220  -0.00004990
   0.00606310  -0.00192170  -0.00072220  -0.00012770
   0.01567280  -0.00500480  -0.00188310  -0.00033290
   0.04049380  -0.01322010  -0.00498580  -0.00088200
   0.09997060  -0.03388140  -0.01284360  -0.00227320
   0.21279920  -0.07927310  -0.03038900  -0.00538320
   0.34176350  -0.15241400  -0.05988830  -0.01065630
   0.32117100  -0.20405350  -0.08404890  -0.01499030
   0.11344270  -0.03513520  -0.01530950  -0.00286450
   0.00604410   0.46865980   0.26871470   0.05039230
   0.00055860   0.57046480   0.49948130   0.09754060
  -0.00025490   0.11751330  -0.09011800  -0.02272100
   0.00006710  -0.00257490  -0.76354950  -0.19525270
  -0.00003550   0.00222320  -0.38958420  -0.18825080
   0.00000560  -0.00022720  -0.00850370   0.55230840
  -0.00000250   0.00010320   0.00256870   0.56354380
* p-type functions
   15    2
      51547.64000000
       8852.14600000
       2388.72100000
        804.80520000
        310.98980000
        133.35420000
         61.72593000
         30.00498000
         15.13772000
          7.77663100
          4.11834400
          2.30863300
          1.38212000
          0.73677900
          0.31498890
   0.00006440   0.00002380
   0.00037040   0.00013720
   0.00190150   0.00070560
   0.00872930   0.00326110
   0.03317960   0.01254710
   0.09876770   0.03842500
   0.22039370   0.08918310
   0.34497690   0.14770440
   0.32404810   0.13615660
   0.13882390  -0.05462520
   0.01929570  -0.29572140
   0.00326390  -0.32834060
  -0.00006820  -0.28458080
   0.00047990  -0.17075450
   0.00003740  -0.02491830
* d-type functions
    9    1
        312.81730000
         88.13556000
         32.22844000
         13.18659000
          5.72952400
          2.50191700
          1.05504700
          0.41568650
          0.14785470
   0.00086290
   0.00810440
   0.03946740
   0.12392510
   0.25277320
   0.33530500
   0.32376480
   0.22966030
   0.08834650

/Zn.ANO-DK3.Tsuchiya.20s15p9d.4s2p1d.
T. Tsuchiya, M. Abe, T. Nakajima, K. Hirao. J. Chem. Phys. 115 (2001) 4463-4472. doi:10.1063/1.1390515
ZINC (20s,15p,9d) -> [4s,2p,1d]
    30.0   2
* s-type functions
   20    4
   70817880.00000000
    7572294.00000000
    1323068.00000000
     302505.70000000
      82854.28000000
      25950.90000000
       8984.71000000
       3368.58800000
       1348.75800000
        567.24390000
        248.30630000
        111.90550000
         50.42617000
         23.42820000
         11.09126000
          4.89705600
          2.25380200
          0.96126800
          0.15577700
          0.05313566
   0.00003110  -0.00000980  -0.00000370  -0.00000080
   0.00012010  -0.00003790  -0.00001440  -0.00000290
   0.00036850  -0.00011630  -0.00004410  -0.00000890
   0.00100860  -0.00031880  -0.00012080  -0.00002450
   0.00260820  -0.00082640  -0.00031340  -0.00006350
   0.00664160  -0.00211690  -0.00080310  -0.00016260
   0.01712110  -0.00550800  -0.00209360  -0.00042450
   0.04387150  -0.01442710  -0.00549280  -0.00111110
   0.10670600  -0.03659620  -0.01402660  -0.00285100
   0.22504430  -0.08507730  -0.03295330  -0.00666890
   0.35300360  -0.16258810  -0.06482740  -0.01327950
   0.31177750  -0.20478610  -0.08557950  -0.01736240
   0.09200510   0.00434180   0.00223800  -0.00003830
   0.00056550   0.50038750   0.30093650   0.06602560
   0.00195470   0.53187870   0.48059570   0.10637030
  -0.00090190   0.10395940  -0.12246330  -0.03016460
   0.00036460  -0.00179290  -0.74321340  -0.23038640
  -0.00012340   0.00201970  -0.39296890  -0.21250370
   0.00002210  -0.00019720  -0.00955370   0.58144110
  -0.00000920   0.00008440   0.00273770   0.55762360
* p-type functions
   15    2
      57518.01000000
       9362.77200000
       2418.08400000
        800.05350000
        310.05840000
        133.37250000
         61.70148000
         29.95873000
         15.10825000
          7.75174700
          4.08510600
          2.28201900
          1.37071600
          0.74767650
          0.31878770
   0.00006670   0.00002500
   0.00040600   0.00015250
   0.00218370   0.00082170
   0.01000240   0.00379200
   0.03718620   0.01428380
   0.10906040   0.04319440
   0.23775020   0.09808530
   0.35637790   0.15610600
   0.30779510   0.12482940
   0.11633050  -0.09430420
   0.01391800  -0.32768580
   0.00242920  -0.33366000
   0.00000950  -0.25661830
   0.00036350  -0.13559190
   0.00001080  -0.01641300
* d-type functions
    9    1
        299.80320000
         91.79517000
         35.63737000
         15.21627000
          6.85369200
          3.09721700
          1.35784900
          0.56523940
          0.21251050
   0.00112000
   0.00872600
   0.03891560
   0.11802470
   0.24219660
   0.33257700
   0.32693360
   0.22450230
   0.07776230

/Ga.ANO-DK3.Tsuchiya.20s15p9d.4s3p1d.
T. Tsuchiya, M. Abe, T. Nakajima, K. Hirao. J. Chem. Phys. 115 (2001) 4463-4472. doi:10.1063/1.1390515
GALLIUM (20s,15p,9d) -> [4s,3p,1d]
    31.0   2
* s-type functions
   20    4
   70959040.00000000
    7603324.00000000
    1319240.00000000
     302670.50000000
      83251.81000000
      25933.12000000
       8976.54700000
       3372.09600000
       1348.62000000
        567.55490000
        248.18870000
        111.67490000
         49.24165000
         23.27517000
         11.08148000
          4.89935200
          2.30082100
          1.02658200
          0.20922290
          0.07348584
   0.00003420  -0.00001080  -0.00000410  -0.00000100
   0.00013220  -0.00004190  -0.00001600  -0.00000380
   0.00040650  -0.00012890  -0.00004940  -0.00001160
   0.00109980  -0.00034940  -0.00013380  -0.00003140
   0.00284770  -0.00090730  -0.00034760  -0.00008160
   0.00728910  -0.00233660  -0.00089520  -0.00020970
   0.01858780  -0.00602050  -0.00231250  -0.00054340
   0.04749690  -0.01573960  -0.00605160  -0.00141600
   0.11453110  -0.03972710  -0.01540250  -0.00362990
   0.23748320  -0.09128700  -0.03574220  -0.00836490
   0.36035800  -0.17118230  -0.06930590  -0.01648800
   0.29708350  -0.20109010  -0.08518830  -0.01993590
   0.07622540   0.04848200   0.02304730   0.00467880
  -0.00246580   0.54192100   0.34563940   0.08916680
   0.00261030   0.48499090   0.45414230   0.11566720
  -0.00127990   0.07981180  -0.20714980  -0.05674440
   0.00058400  -0.00135940  -0.73011120  -0.28322090
  -0.00020250   0.00163370  -0.34811880  -0.22821270
   0.00004120  -0.00017000  -0.00846510   0.63704890
  -0.00001580   0.00006340   0.00190230   0.53364340
* p-type functions
   15    3
      49597.56000000
       8521.69500000
       2303.89900000
        783.03950000
        305.54940000
        131.16530000
         60.06042000
         28.47848000
         13.71275000
          6.35991600
          2.90384900
          1.27024500
          0.48107990
          0.15285910
          0.04856343
   0.00008730   0.00003320   0.00000540
   0.00050490   0.00019270   0.00003140
   0.00257480   0.00098250   0.00016130
   0.01147010   0.00442470   0.00071930
   0.04238370   0.01653640   0.00272500
   0.12327490   0.04989330   0.00813660
   0.26599320   0.11193550   0.01865420
   0.38550910   0.17433450   0.02853830
   0.28851510   0.09110380   0.01517870
   0.07006930  -0.25465040  -0.05255190
   0.00190470  -0.51634090  -0.09834090
   0.00139360  -0.34592670  -0.09173310
  -0.00021260  -0.04743420   0.11945780
   0.00009560   0.00148550   0.54461100
  -0.00003100  -0.00074280   0.49607480
* d-type functions
    9    1
        457.91230000
        128.54330000
         48.13583000
         20.16190000
          9.03733800
          4.12206900
          1.83564500
          0.77932260
          0.29996760
   0.00062870
   0.00589310
   0.02975900
   0.09859400
   0.22099370
   0.32906630
   0.34440870
   0.24006330
   0.07684750

/Ge.ANO-DK3.Tsuchiya.20s15p9d.4s3p1d.
T. Tsuchiya, M. Abe, T. Nakajima, K. Hirao. J. Chem. Phys. 115 (2001) 4463-4472. doi:10.1063/1.1390515
GERMANIUM (20s,15p,9d) -> [4s,3p,1d]
    32.0   2
* s-type functions
   20    4
   67849860.00000000
    7452055.00000000
    1336788.00000000
     305032.60000000
      82939.38000000
      25960.83000000
       8979.76300000
       3367.25600000
       1349.64700000
        567.90310000
        248.35020000
        111.41580000
         47.10571000
         23.20514000
         11.24089000
          4.72094600
          2.29693800
          1.08562400
          0.26056570
          0.09319365
   0.00003870  -0.00001230  -0.00000480  -0.00000120
   0.00014450  -0.00004600  -0.00001780  -0.00000460
   0.00043720  -0.00013940  -0.00005390  -0.00001390
   0.00121030  -0.00038640  -0.00014950  -0.00003850
   0.00312190  -0.00100040  -0.00038740  -0.00010000
   0.00789790  -0.00254440  -0.00098480  -0.00025370
   0.02024520  -0.00660670  -0.00256580  -0.00066350
   0.05128710  -0.01710510  -0.00664430  -0.00170940
   0.12229080  -0.04296810  -0.01686110  -0.00437540
   0.24982460  -0.09743010  -0.03857790  -0.00992560
   0.36545600  -0.17971430  -0.07393340  -0.01939270
   0.28263190  -0.19345350  -0.08304420  -0.02132120
   0.06246460   0.10053120   0.04924720   0.01183060
  -0.00586250   0.55741120   0.37866260   0.10912740
   0.00340780   0.44553350   0.41692920   0.11571600
  -0.00167490   0.06618120  -0.30467290  -0.09242570
   0.00090600  -0.00575130  -0.69931790  -0.33157300
  -0.00033200   0.00267580  -0.29204740  -0.21149420
   0.00007060  -0.00041940  -0.00814500   0.67713680
  -0.00002470   0.00013970   0.00152460   0.51745610
* p-type functions
   15    3
      49291.81000000
       8590.04000000
       2320.16200000
        782.29940000
        304.99730000
        131.20960000
         60.06446000
         28.51247000
         13.78106000
          6.38401400
          2.90604200
          1.27120700
          0.42229260
          0.16033300
          0.05801651
   0.00009900   0.00003820   0.00000750
   0.00056220   0.00021790   0.00004300
   0.00289210   0.00112100   0.00022050
   0.01294160   0.00507380   0.00100330
   0.04712900   0.01871190   0.00368780
   0.13459230   0.05554580   0.01105460
   0.28295170   0.12163790   0.02414790
   0.38796320   0.17922400   0.03632970
   0.26483250   0.06708210   0.01099630
   0.05700730  -0.29826860  -0.07022570
   0.00123560  -0.52699680  -0.13440080
   0.00111850  -0.30274070  -0.07828710
  -0.00019920  -0.02801370   0.24415170
   0.00010380   0.00334970   0.56991160
  -0.00003460  -0.00109760   0.34243740
* d-type functions
    9    1
        449.65610000
        132.21530000
         50.11846000
         21.24242000
          9.62667700
          4.45196000
          2.02792100
          0.89021290
          0.35348260
   0.00076340
   0.00665790
   0.03276220
   0.10578550
   0.23072920
   0.33410990
   0.33882800
   0.21962490
   0.06012960

/As.ANO-DK3.Tsuchiya.20s15p9d.4s3p1d.
T. Tsuchiya, M. Abe, T. Nakajima, K. Hirao. J. Chem. Phys. 115 (2001) 4463-4472. doi:10.1063/1.1390515
ARSENIC (20s,15p,9d) -> [4s,3p,1d]
    33.0   2
* s-type functions
   20    4
   72421890.00000000
    7704075.00000000
    1336573.00000000
     303943.50000000
      83289.25000000
      25994.45000000
       8979.57700000
       3366.79500000
       1346.47000000
        567.74580000
        249.23080000
        111.99520000
         46.32814000
         22.61122000
         10.91011000
          4.54983400
          2.14946300
          1.03375100
          0.30892460
          0.11206710
   0.00004080  -0.00001310  -0.00000510  -0.00000140
   0.00015750  -0.00005040  -0.00001970  -0.00000540
   0.00048400  -0.00015500  -0.00006060  -0.00001680
   0.00131700  -0.00042250  -0.00016510  -0.00004570
   0.00338160  -0.00108940  -0.00042630  -0.00011810
   0.00860270  -0.00278630  -0.00108980  -0.00030120
   0.02189440  -0.00719220  -0.00282370  -0.00078340
   0.05536550  -0.01860230  -0.00730280  -0.00201620
   0.13083970  -0.04651340  -0.01846860  -0.00514200
   0.26071280  -0.10338890  -0.04142340  -0.01144180
   0.36734270  -0.18619240  -0.07778220  -0.02190190
   0.26652490  -0.18440350  -0.08026600  -0.02213960
   0.05157160   0.15836850   0.08103410   0.02198240
  -0.00621170   0.59249340   0.43118780   0.13428240
   0.00326390   0.38179740   0.35776990   0.10613740
  -0.00163510   0.04305890  -0.45290380  -0.15605910
   0.00093310  -0.00306210  -0.67958380  -0.40090160
  -0.00039230   0.00167360  -0.18112910  -0.13285040
   0.00010010  -0.00033180  -0.00476240   0.71705950
  -0.00003060   0.00008780   0.00052910   0.49491760
* p-type functions
   15    3
      49515.58000000
       8463.78300000
       2290.85600000
        779.65970000
        305.45690000
        130.97990000
         59.69896000
         28.40879000
         13.88300000
          6.61022100
          3.08212600
          1.39198300
          0.48254700
          0.19228260
          0.07284966
   0.00011240   0.00004410   0.00000980
   0.00064930   0.00025530   0.00005690
   0.00328760   0.00129530   0.00028740
   0.01439920   0.00573210   0.00128070
   0.05204210   0.02104590   0.00467900
   0.14778220   0.06210950   0.01398040
   0.30126520   0.13262490   0.02971250
   0.38557890   0.18075780   0.04160230
   0.23776680   0.04285040   0.00573800
   0.04759020  -0.31594460  -0.08382410
   0.00168410  -0.51707090  -0.15489830
   0.00079290  -0.28584900  -0.07790750
  -0.00010760  -0.02624920   0.29245070
   0.00005670   0.00322500   0.56686260
  -0.00001930  -0.00090480   0.29630800
* d-type functions
    9    1
        718.96480000
        207.98400000
         79.59085000
         34.51411000
         15.73054000
          7.28056000
          3.30007000
          1.41731600
          0.54472730
   0.00036040
   0.00326710
   0.01715240
   0.06106450
   0.16379040
   0.29930890
   0.37345790
   0.29791590
   0.09871080

/Se.ANO-DK3.Tsuchiya.20s15p9d.4s3p1d.
T. Tsuchiya, M. Abe, T. Nakajima, K. Hirao. J. Chem. Phys. 115 (2001) 4463-4472. doi:10.1063/1.1390515
SELENIUM (20s,15p,9d) -> [4s,3p,1d]
    34.0   2
* s-type functions
   20    4
   70126910.00000000
    7615059.00000000
    1339994.00000000
     304719.30000000
      83264.65000000
      26000.94000000
       8988.20700000
       3365.30100000
       1345.15800000
        567.64000000
        249.58650000
        112.48470000
         45.76734000
         22.29536000
         10.80542000
          4.48013700
          2.04688100
          0.86721290
          0.34341860
          0.12788100
   0.00004550  -0.00001460  -0.00000580   0.00000170
   0.00017200  -0.00005530  -0.00002180   0.00000640
   0.00052500  -0.00016900  -0.00006670   0.00001960
   0.00143480  -0.00046250  -0.00018260   0.00005360
   0.00367920  -0.00119140  -0.00047110   0.00013830
   0.00930870  -0.00303040  -0.00119760   0.00035120
   0.02363590  -0.00781660  -0.00310120   0.00091200
   0.05958650  -0.02016190  -0.00800030   0.00234490
   0.13926220  -0.05010910  -0.02012200   0.00593600
   0.27204510  -0.10964830  -0.04447190   0.01305480
   0.36817460  -0.19271280  -0.08169610   0.02436450
   0.24875260  -0.17168230  -0.07583120   0.02231620
   0.04236220   0.21599330   0.11548860  -0.03445830
  -0.00601750   0.60452860   0.46803310  -0.15493400
   0.00295520   0.32843670   0.29494480  -0.09361340
  -0.00141500   0.03081400  -0.56805170   0.22303630
   0.00075120  -0.00183590  -0.66018050   0.46605770
  -0.00035090   0.00114530  -0.09080480   0.02054920
   0.00013780  -0.00041070   0.00200270  -0.76038580
  -0.00003540   0.00008810  -0.00077870  -0.44195730
* p-type functions
   15    3
      48566.15000000
       8431.60000000
       2294.63500000
        783.77970000
        305.86350000
        130.60430000
         59.46513000
         28.36377000
         13.89605000
          6.61860800
          3.11943800
          1.44911700
          0.53959100
          0.21459710
          0.08070004
   0.00012810  -0.00005100   0.00001230
   0.00072920  -0.00029090   0.00007040
   0.00364970  -0.00145960   0.00035140
   0.01590250  -0.00642800   0.00155920
   0.05761260  -0.02369660   0.00571920
   0.16120460  -0.06903130   0.01688440
   0.31736640  -0.14274100   0.03474060
   0.38206810  -0.18158420   0.04551400
   0.21427980  -0.01291880  -0.00260850
   0.03783580   0.35399240  -0.10256450
   0.00123330   0.50751410  -0.17324230
   0.00064720   0.24507140  -0.05833690
  -0.00009860   0.02062080   0.34167710
   0.00003900  -0.00130500   0.55262370
  -0.00001620   0.00063200   0.26713570
* d-type functions
    9    1
        658.51230000
        201.80170000
         80.06564000
         34.77766000
         15.74274000
          7.27544800
          3.31922200
          1.46378200
          0.58195150
   0.00049870
   0.00394840
   0.01957650
   0.07051800
   0.18429380
   0.31926820
   0.37117560
   0.26248610
   0.07324430

/Br.ANO-DK3.Tsuchiya.20s15p9d.4s3p1d.
T. Tsuchiya, M. Abe, T. Nakajima, K. Hirao. J. Chem. Phys. 115 (2001) 4463-4472. doi:10.1063/1.1390515
BROMINE (20s,15p,9d) -> [4s,3p,1d]
    35.0   2
* s-type functions
   20    4
   72009610.00000000
    7685982.00000000
    1334824.00000000
     303714.20000000
      83266.68000000
      26029.00000000
       8996.84900000
       3366.55000000
       1342.80900000
        566.36340000
        249.83410000
        113.12160000
         45.63833000
         21.85713000
         10.44410000
          4.55522500
          2.04693600
          0.67755470
          0.33353780
          0.13402780
   0.00004900  -0.00001580  -0.00000630  -0.00000190
   0.00018800  -0.00006070  -0.00002420  -0.00000740
   0.00057530  -0.00018600  -0.00007420  -0.00002280
   0.00155920  -0.00050490  -0.00020140  -0.00006190
   0.00398160  -0.00129590  -0.00051740  -0.00015910
   0.01005600  -0.00329060  -0.00131410  -0.00040400
   0.02544510  -0.00846880  -0.00339230  -0.00104390
   0.06392020  -0.02178710  -0.00874310  -0.00268900
   0.14834770  -0.05400810  -0.02190220  -0.00675480
   0.28316890  -0.11614160  -0.04775390  -0.01473620
   0.36657300  -0.19797350  -0.08493600  -0.02643850
   0.23081560  -0.15745970  -0.07101720  -0.02218570
   0.03450920   0.27393010   0.15432220   0.04983370
  -0.00507670   0.61980610   0.50528850   0.17451450
   0.00249690   0.26876830   0.22653000   0.07826160
  -0.00120930   0.01804600  -0.64644890  -0.28565100
   0.00052560   0.00085410  -0.62520170  -0.48912680
  -0.00026270  -0.00000860  -0.05483150   0.17768280
   0.00015750  -0.00002130   0.01090530   0.73218300
  -0.00003750  -0.00001110  -0.00223890   0.33181150
* p-type functions
   15    3
      50578.35000000
       8510.12400000
       2298.64000000
        783.19730000
        305.53480000
        130.64040000
         59.33013000
         28.14071000
         13.66256000
          6.53494700
          3.11145000
          1.47231400
          0.59142640
[...]
   0.00053890  -0.00029110  -0.00015590  -0.00007830   0.00003000
   0.00122110  -0.00066170  -0.00035460  -0.00017820   0.00006830
   0.00274930  -0.00149680  -0.00080300  -0.00040380   0.00015470
   0.00622430  -0.00341050  -0.00183260  -0.00092150   0.00035300
   0.01424840  -0.00787760  -0.00424310  -0.00213620   0.00081910
   0.03283380  -0.01839830  -0.00994330  -0.00500650   0.00191800
   0.07374890  -0.04217100  -0.02291580  -0.01156780   0.00443950
   0.15233110  -0.08975030  -0.04915240  -0.02483040   0.00951560
   0.26270510  -0.16058820  -0.08889280  -0.04513570   0.01735930
   0.32991110  -0.20190190  -0.11146520  -0.05630800   0.02153070
   0.25079020  -0.07471350  -0.02316860  -0.00931630   0.00351910
   0.08589130   0.27845100   0.24554960   0.14140960  -0.05628460
   0.00666350   0.50423910   0.46159440   0.26522100  -0.10389310
   0.00105440   0.29682150   0.10604710   0.02926330  -0.01034320
  -0.00070310   0.05317130  -0.55224080  -0.49981470   0.22312620
   0.00035710   0.00066740  -0.54483210  -0.52644230   0.22698630
  -0.00020960   0.00038990  -0.12931530   0.36236450  -0.23190500
   0.00012090  -0.00031480  -0.00408770   0.71668110  -0.48428090
  -0.00005130   0.00007050  -0.00106270   0.25728170  -0.03365510
   0.00002080  -0.00003200   0.00030640   0.01875480   0.55243500
  -0.00000800   0.00001200  -0.00010340   0.00033500   0.52415990
   0.00000200  -0.00000320   0.00002190  -0.00004140   0.11393580
* d-type functions
   18    3
      38539.20900000
       9643.17550000
       3322.81830000
       1364.51130000
        628.03495000
        312.70424000
        163.78220000
         88.71439300
         49.01384000
         27.35940500
         15.60461000
          9.04168250
          5.47187910
          3.71193970
          2.44413020
          1.39676530
          0.73719247
          0.30859683
   0.00015720   0.00009160  -0.00004320
   0.00098490   0.00057550  -0.00027120
   0.00485120   0.00285170  -0.00134690
   0.01954170   0.01157310  -0.00547080
   0.06312080   0.03792320  -0.01801250
   0.15895500   0.09705370  -0.04621620
   0.29276230   0.17790050  -0.08481200
   0.35668070   0.19221020  -0.08748980
   0.23923930  -0.01557960   0.03367590
   0.07320260  -0.34534590   0.22812050
   0.00722750  -0.44986620   0.28564880
   0.00061670  -0.23529500  -0.00632250
  -0.00028330  -0.04910040  -0.29995110
   0.00012620  -0.00895360  -0.28814900
  -0.00009460  -0.00059090  -0.34313050
   0.00000380  -0.00034760  -0.17807630
  -0.00000850   0.00002950  -0.03819590
  -0.00000050  -0.00001660  -0.00280550
* f-type functions
   13    2
       2109.10380000
        708.04495000
        300.16793000
        145.41138000
         75.35501500
         40.21732300
         21.41566400
         11.33114600
          5.84333290
          2.87049040
          1.32919260
          0.56835306
          0.21330351
  -0.00034550   0.00012900
  -0.00307440   0.00114540
  -0.01681290   0.00631300
  -0.05981340   0.02243550
  -0.15500360   0.05860300
  -0.28958530   0.10493050
  -0.36999270   0.11823870
  -0.27505850   0.00618030
  -0.09347590  -0.23369670
  -0.00959600  -0.39534940
  -0.00072190  -0.36031070
  -0.00022280  -0.21812430
  -0.00010120  -0.07486620

/No.ANO-DK3.Tsuchiya.35s26p18d13f.7s5p3d2f.
T. Tsuchiya, M. Abe, T. Nakajima, K. Hirao. J. Chem. Phys. 115 (2001) 4463-4472. doi:10.1063/1.1390515
NOBELIUM (35s,26p,18d,13f) -> [7s,5p,3d,2f]
   102.0   3
* s-type functions
   35    7
        324.89842e10
        304.197620e9
45797007000.00000000
 9017584600.00000000
 2217541500.00000000
  665488300.00000000
  235112090.00000000
   93565629.00000000
   34428209.00000000
   11470997.00000000
    3800047.00000000
    1303436.80000000
     470673.72000000
     180448.47000000
      74289.26300000
      32768.45600000
      15141.26100000
       7241.47920000
       3585.95650000
       1812.27930000
        918.43375000
        471.84691000
        245.87404000
        121.00148000
         70.28100800
         38.97715000
         21.31802900
         12.02810100
          6.41548170
          3.34614270
          1.32077440
          0.76640180
          0.36074458
        806.11525e-4
        311.10764e-4
   0.00000490  -0.00000220   0.00000110   0.00000060  -0.00000030  -0.00000010   0.00000000
   0.00001860  -0.00000830   0.00000410   0.00000220  -0.00000110  -0.00000050   0.00000010
   0.00005240  -0.00002340   0.00001160   0.00000620  -0.00000320  -0.00000140   0.00000040
   0.00012570  -0.00005600   0.00002770   0.00001470  -0.00000760  -0.00000340   0.00000080
   0.00025620  -0.00011390   0.00005630   0.00002990  -0.00001550  -0.00000690   0.00000170
   0.00046140  -0.00020470   0.00010120   0.00005360  -0.00002790  -0.00001240   0.00000310
   0.00074160  -0.00032840   0.00016230   0.00008600  -0.00004470  -0.00001990   0.00000490
   0.00125020  -0.00055300   0.00027320   0.00014480  -0.00007520  -0.00003350   0.00000820
   0.00260510  -0.00115120   0.00056870   0.00030140  -0.00015660  -0.00006960   0.00001720
   0.00521170  -0.00230280   0.00113760   0.00060300  -0.00031320  -0.00013930   0.00003430
   0.00980600  -0.00433900   0.00214430   0.00113660  -0.00059040  -0.00026260   0.00006470
   0.01763930  -0.00783650   0.00387560   0.00205460  -0.00106740  -0.00047470   0.00011700
   0.03040360  -0.01361270   0.00674240   0.00357590  -0.00185780  -0.00082630   0.00020370
   0.04994180  -0.02266360   0.01125190   0.00597110  -0.00310300  -0.00138030   0.00034020
   0.07734010  -0.03582870   0.01785990   0.00948800  -0.00493110  -0.00219340   0.00054060
   0.11539960  -0.05515280   0.02764080   0.01470370  -0.00764800  -0.00340290   0.00083900
   0.16726440  -0.08354110   0.04225430   0.02253430  -0.01172020  -0.00521390   0.00128470
   0.22222690  -0.11823720   0.06045880   0.03232600  -0.01684970  -0.00750160   0.00185030
   0.25116680  -0.14202970   0.07366820   0.03955810  -0.02058690  -0.00915920   0.00225560
   0.21354070  -0.10878610   0.05328490   0.02804940  -0.01462630  -0.00651370   0.00160940
   0.09840490   0.08504000  -0.07605300  -0.04621740   0.02515510   0.01132640  -0.00280220
   0.01267820   0.40786440  -0.36634950  -0.22783360   0.12344590   0.05550950  -0.01369660
   0.00101710   0.47929960  -0.52108400  -0.34416370   0.19193650   0.08698410  -0.02150560
  -0.00077760   0.17071420   0.05040910   0.08682620  -0.06104060  -0.02931540   0.00730640
   0.00070350  -0.01800560   0.76132610   0.93246450  -0.61543910  -0.29112020   0.07242530
  -0.00054380   0.01504180   0.44561820   0.60443730  -0.43043360  -0.21127850   0.05276110
   0.00039200  -0.00936470   0.05829930  -0.75184740   0.82116970   0.44773760  -0.11353670
  -0.00024530   0.00550570  -0.00106300  -0.80320140   1.24958800   0.76189330  -0.19694060
   0.00012770  -0.00279210   0.00107390  -0.11461050  -0.57705240  -0.55088700   0.15047030
  -0.00005730   0.00124050  -0.00064870  -0.00114420  -1.07412090  -1.08098960   0.30400470
   0.00002950  -0.00063600   0.00027370  -0.00035840  -0.15964010   0.17927980  -0.06202400
  -0.00001920   0.00041260  -0.00017640   0.00009640   0.04005300   0.85536970  -0.33979840
   0.00000510  -0.00011090   0.00005080   0.00002040  -0.00851330   0.38832990  -0.29481990
  -0.00000100   0.00002090  -0.00000930  -0.00000310   0.00133940   0.00863200   0.59633740
   0.00000040  -0.00000800   0.00000360   0.00000150  -0.00050290  -0.00186530   0.59866190
* p-type functions
   26    5
  480367830.00000000
   67913052.00000000
   13747703.00000000
    3375898.70000000
     966697.86000000
     314081.91000000
     112045.26000000
      42893.58200000
      17545.41100000
       7609.63620000
       3461.22700000
       1649.78690000
        823.07748000
        426.58298000
        227.12643000
        122.97752000
         68.65903800
         38.49108800
         21.20205000
         11.94810200
          6.57427980
          3.49654270
          1.77760970
          0.82803544
          0.37302744
          0.15022828
   0.00001190  -0.00000640  -0.00000340  -0.00000170   0.00000070
   0.00003700  -0.00001990  -0.00001070  -0.00000540   0.00000210
   0.00010000  -0.00005390  -0.00002890  -0.00001460   0.00000560
   0.00024820  -0.00013400  -0.00007190  -0.00003630   0.00001380
   0.00057370  -0.00031050  -0.00016670  -0.00008410   0.00003210
   0.00128160  -0.00069600  -0.00037390  -0.00018870   0.00007200
   0.00287700  -0.00156970  -0.00084430  -0.00042630   0.00016280
   0.00652950  -0.00358550  -0.00193160  -0.00097530   0.00037240
   0.01485680  -0.00823410  -0.00444730  -0.00224820   0.00085910
   0.03405810  -0.01913190  -0.01036700  -0.00524160   0.00200160
   0.07654320  -0.04389940  -0.02392530  -0.01212830   0.00463880
   0.15649570  -0.09247060  -0.05077980  -0.02576090   0.00984090
   0.26641900  -0.16332830  -0.09069370  -0.04624780   0.01772560
   0.33122630  -0.20174940  -0.11132520  -0.05641950   0.02150430
   0.24474350  -0.06328230  -0.01506440  -0.00491080   0.00177410
   0.07931340   0.29651620   0.26205450   0.15169750  -0.06013750
   0.00620390   0.50292460   0.46087070   0.26571890  -0.10381790
   0.00062800   0.28204590   0.07656760   0.00865300  -0.00164130
  -0.00043110   0.04735040  -0.57512730  -0.52731900   0.23494730
   0.00017950   0.00067290  -0.52420620  -0.50341500   0.21534250
  -0.00010080   0.00020630  -0.11594810   0.40984430  -0.25984860
   0.00006030  -0.00022460  -0.00457920   0.71368360  -0.47949680
  -0.00002400   0.00003590  -0.00049380   0.22932750   0.00563310
   0.00001020  -0.00001830   0.00011110   0.01318600   0.56232820
  -0.00000390   0.00000670  -0.00003090   0.00100920   0.50610290
   0.00000100  -0.00000180   0.00000360  -0.00020870   0.10406480
* d-type functions
   18    3
      36197.14500000
       9068.20830000
       3148.02210000
       1293.90160000
        591.47639000
        291.34083000
        151.77063000
         83.25829400
         47.91586900
         28.75444300
         17.66178400
         10.63577300
          6.16049100
          3.74376250
          2.40130630
          1.38373020
          0.65282376
          0.13445144
   0.00018290  -0.00010700   0.00005070
   0.00114100  -0.00066930   0.00031730
   0.00556900  -0.00328990   0.00156240
   0.02247040  -0.01336750   0.00635910
   0.07312410  -0.04422500   0.02112730
   0.18165500  -0.11140980   0.05340360
   0.31370960  -0.19048620   0.09111390
   0.33787280  -0.17194200   0.07690610
   0.20245870   0.03884830  -0.04635500
   0.06775330   0.28636820  -0.18865390
   0.01031790   0.40997140  -0.27334490
   0.00114110   0.29004440  -0.07650500
  -0.00035780   0.08491320   0.30011370
   0.00019260   0.00607210   0.38170960
  -0.00016350   0.00215840   0.30175910
   0.00002890  -0.00017890   0.17260800
  -0.00001290   0.00008550   0.02938870
   0.00000040  -0.00000270   0.00055810
* f-type functions
   13    2
       2116.87310000
        709.22986000
        300.51677000
        143.77918000
         73.80684000
         39.66755400
         21.67292500
         11.90268800
          6.41256250
          3.30259080
          1.58921060
          0.68635396
          0.25311325
  -0.00036980   0.00013950
  -0.00325520   0.00122840
  -0.01796670   0.00681890
  -0.06548650   0.02488760
  -0.16639280   0.06354240
  -0.29109900   0.10622720
  -0.35212640   0.11255170
  -0.26201280   0.00878710
  -0.09901630  -0.20494420
  -0.01315140  -0.36781720
  -0.00042100  -0.37023170
  -0.00001990  -0.24717840
  -0.00000150  -0.09217500

/Lr.ANO-DK3.Tsuchiya.35s26p18d13f.7s5p4d2f.
T. Tsuchiya, M. Abe, T. Nakajima, K. Hirao. J. Chem. Phys. 115 (2001) 4463-4472. doi:10.1063/1.1390515
LAWRENCIUM (35s,26p,18d,13f) -> [7s,5p,4d,2f]
   103.0   3
* s-type functions
   35    7
        396.74449e10
        309.984460e9
44219987000.00000000
 8664208900.00000000
 2190531200.00000000
  652910030.00000000
  231719300.00000000
   95239269.00000000
   35362672.00000000
   11834136.00000000
    3867554.90000000
    1303302.50000000
     464607.24000000
     178507.68000000
      74219.30100000
      32794.92800000
      15070.36000000
       7219.95680000
       3605.18380000
       1813.68380000
        903.44198000
        468.13900000
        245.41320000
        115.80165000
         69.77765700
         39.11966200
         20.89673100
         12.13820100
          6.37653710
          3.33531460
          1.34053080
          0.72285688
          0.36247974
        851.77924e-4
        316.72413e-4
   0.00000510  -0.00000230   0.00000110   0.00000060  -0.00000030  -0.00000010   0.00000000
   0.00002120  -0.00000960   0.00000480   0.00000250  -0.00000130  -0.00000060   0.00000020
   0.00005950  -0.00002680   0.00001330   0.00000710  -0.00000370  -0.00000170   0.00000050
   0.00013830  -0.00006210   0.00003070   0.00001630  -0.00000850  -0.00000380   0.00000100
   0.00027580  -0.00012340   0.00006110   0.00003240  -0.00001690  -0.00000760   0.00000210
   0.00050980  -0.00022770   0.00011260   0.00005980  -0.00003120  -0.00001410   0.00000380
   0.00077600  -0.00034590   0.00017110   0.00009090  -0.00004740  -0.00002140   0.00000580
   0.00129520  -0.00057670   0.00028520   0.00015140  -0.00007900  -0.00003560   0.00000970
   0.00270560  -0.00120340   0.00059510   0.00031600  -0.00016480  -0.00007430   0.00002030
   0.00544160  -0.00241980   0.00119660   0.00063530  -0.00033140  -0.00014930   0.00004070
   0.01039620  -0.00462940   0.00229010   0.00121610  -0.00063430  -0.00028590   0.00007800
   0.01879750  -0.00840440   0.00416040   0.00220950  -0.00115270  -0.00051950   0.00014170
   0.03217450  -0.01450080   0.00719020   0.00382040  -0.00199320  -0.00089830   0.00024510
   0.05166800  -0.02360330   0.01172960   0.00623530  -0.00325380  -0.00146660   0.00040010
   0.07918410  -0.03693160   0.01843380   0.00981260  -0.00512180  -0.00230840   0.00062990
   0.11894140  -0.05721360   0.02869370   0.01528590  -0.00798280  -0.00359910   0.00098180
   0.17169910  -0.08638520   0.04377820   0.02340610  -0.01222960  -0.00551220   0.00150460
   0.22201870  -0.11871670   0.06067500   0.03245680  -0.01697800  -0.00766070   0.00208850
   0.24842020  -0.14067920   0.07314830   0.03943800  -0.02063650  -0.00929870   0.00254220
   0.21261910  -0.10328050   0.04904890   0.02543130  -0.01322720  -0.00597520   0.00161750
   0.09264370   0.10623520  -0.09136690  -0.05496210   0.02985720   0.01364230  -0.00369580
   0.00941780   0.41615450  -0.38141950  -0.23972620   0.13093200   0.05963090  -0.01637790
   0.00161160   0.46978170  -0.50324000  -0.33074980   0.18478710   0.08501210  -0.02308870
  -0.00133110   0.16441120   0.11450410   0.14645450  -0.09822510  -0.04791900   0.01264220
   0.00125990  -0.03542390   0.74754540   0.94552830  -0.63289020  -0.30289990   0.08472950
  -0.00088210   0.02206080   0.41705980   0.51345100  -0.35949000  -0.18130110   0.04804340
   0.00062170  -0.01368710   0.05153530  -0.80152800   0.90330380   0.51045280  -0.13986400
  -0.00039930   0.00837940  -0.00293900  -0.73293010   1.15659400   0.70947100  -0.20985050
   0.00019630  -0.00403370   0.00144000  -0.11439520  -0.66684070  -0.63482420   0.20188240
  -0.00008840   0.00180570  -0.00076830   0.00631860  -1.01918100  -1.06959680   0.32623510
   0.00004220  -0.00086020   0.00030810  -0.00352580  -0.11955720   0.36479510  -0.11285640
  -0.00002710   0.00055200  -0.00019340   0.00216390   0.02316580   0.82135790  -0.45688290
   0.00000880  -0.00018030   0.00006590  -0.00067050  -0.00571100   0.28999260  -0.20013770
  -0.00000160   0.00003230  -0.00001160   0.00012240   0.00079000   0.00843720   0.78164380
   0.00000060  -0.00001150   0.00000420  -0.00004380  -0.00027410  -0.00191860   0.42672550
* p-type functions
   26    5
  370823890.00000000
   55960854.00000000
   12078576.00000000
    3116104.50000000
     306639.62000000
     920718.16000000
     111343.65000000
      43139.10100000
      17688.12900000
       7644.47660000
       3468.45480000
       1647.57370000
        817.37833000
        422.57661000
        225.98536000
        124.10979000
         70.04369700
         39.66171200
         21.34273300
         11.89699500
          6.46228490
          3.41332310
          1.70526420
          0.82660041
          0.38674833
          0.16221806
   0.00001490  -0.00000800  -0.00000430  -0.00000220   0.00000090
   0.00004320  -0.00002330  -0.00001250  -0.00000640   0.00000250
   0.00011160  -0.00006030  -0.00003240  -0.00001640   0.00000640
   0.00027010  -0.00014610  -0.00007860  -0.00003980   0.00001560
   0.00134780  -0.00073340  -0.00039500  -0.00020030   0.00007820
   0.00061360  -0.00033280  -0.00017910  -0.00009080   0.00003550
   0.00299000  -0.00163490  -0.00088160  -0.00044730   0.00017470
   0.00673950  -0.00370840  -0.00200320  -0.00101650   0.00039680
   0.01540850  -0.00856050  -0.00463490  -0.00235480   0.00092000
   0.03536910  -0.01991350  -0.01082220  -0.00549930   0.00214740
   0.07919250  -0.04555820  -0.02489000  -0.01268160   0.00495850
   0.16202850  -0.09598850  -0.05288780  -0.02696650   0.01053590
   0.27402890  -0.16858910  -0.09381590  -0.04809020   0.01883940
   0.33081590  -0.19980000  -0.11031890  -0.05610430   0.02187260
   0.23381100  -0.04984310  -0.00520230   0.00039530  -0.00033200
   0.07347480   0.30204650   0.26576670   0.15493210  -0.06275820
   0.00653180   0.49237850   0.45701450   0.26480720  -0.10603740
   0.00025070   0.28216230   0.06636900   0.00196630   0.00168000
  -0.00018750   0.04953090  -0.60262880  -0.56471430   0.25743180
   0.00002920  -0.00186870  -0.50910930  -0.47169030   0.20490530
  -0.00001390   0.00128890  -0.09822670   0.48368230  -0.31542390
   0.00001620  -0.00076870  -0.00321450   0.69342920  -0.47516430
  -0.00000470   0.00030900  -0.00035300   0.18789760   0.06635690
   0.00000240  -0.00014540   0.00008250   0.00641330   0.58436900
  -0.00000090   0.00005640  -0.00001790   0.00171110   0.46401450
   0.00000020  -0.00001400   0.00000020  -0.00040100   0.09359390
* d-type functions
   18    4
      33883.21900000
       8462.20610000
       2945.41430000
       1216.58070000
        560.42849000
        280.51156000
        149.61578000
         84.18176800
         48.47018500
         27.10565900
         15.06318700
          8.20715220
          4.35722640
          2.22659410
          1.06480620
          0.39734160
          0.13720912
        433.47259e-4
   0.00021370   0.00012560   0.00006000  -0.00001160
   0.00134660   0.00079360   0.00037920  -0.00007370
   0.00652880   0.00387280   0.00185500  -0.00035920
   0.02590960   0.01550030   0.00743360  -0.00144590
   0.08128830   0.04942470   0.02382600  -0.00461580
   0.18972760   0.11696630   0.05649860  -0.01101980
   0.30806490   0.18690010   0.09016880  -0.01739630
   0.32497650   0.16497480   0.07360730  -0.01438320
   0.20998330  -0.05131350  -0.05442200   0.01216810
   0.06490450  -0.38573880  -0.26000510   0.05219090
   0.00362980  -0.46635560  -0.28643950   0.05901500
   0.00095010  -0.19307180   0.15584410  -0.04847330
  -0.00052860  -0.02169940   0.53903710  -0.13011600
   0.00017000  -0.00105430   0.39456810  -0.08981950
  -0.00008650   0.00003200   0.10118060   0.13132880
   0.00002230  -0.00004310   0.00517650   0.38383200
  -0.00000850   0.00001360  -0.00008800   0.48620470
   0.00000260  -0.00000380   0.00004990   0.30314530
* f-type functions
   13    2
       2124.28080000
        709.41607000
        300.46753000
        143.66872000
         73.74290200
         39.62764000
         21.69452700
         11.94055500
          6.44173870
          3.30920890
          1.60269060
          0.71663710
          0.28133596
  -0.00039410  -0.00015410
  -0.00346980  -0.00135920
  -0.01905540  -0.00749780
  -0.06887550  -0.02717520
  -0.17311350  -0.06849430
  -0.29729640  -0.11215980
  -0.35126840  -0.11425640
  -0.25322810   0.00141320
  -0.09162190   0.22546090
  -0.01133890   0.38302870
  -0.00030660   0.35975470
  -0.00002010   0.21811530
   0.00000140   0.06841160
