************************************************************************
* This file is part of OpenMolcas.                                     *
*                                                                      *
* OpenMolcas is free software; you can redistribute it and/or modify   *
* it under the terms of the GNU Lesser General Public License, v. 2.1. *
* OpenMolcas is distributed in the hope that it will be useful, but it *
* is provided "as is" and without any express or implied warranties.   *
* For more details see the full text of the license in the file        *
* LICENSE or in <http://www.gnu.org/licenses/>.                        *
************************************************************************

#Hamiltonian NRH
#Nucleus UNK
#Contraction ANO
#AllElectron AE_

************************************************************************
* This is aug-ano-pV5Z from the original publication.                  *
************************************************************************

/H.ANO-ORCA.Neese.8s6p4d3f.4s3p2d1f.
F. Neese, E. Valeev. J. Chem. Theory Comput. 7 (2011) 33-43. doi:10.1021/ct100396y
HYDROGEN (8s,6p,4d,3f) -> [4s,3p,2d,1f]
     1.0   3
* s-type functions
    8    4
        402.00990000
         60.24196000
         13.73217000
          3.90450500
          1.28270900
          0.46554400
          0.18112000
          0.07279100
  -0.000442950800  -0.000585791700  -0.000608315000   0.000508177900
  -0.003250746700  -0.002096344300  -0.005248350000  -0.029116659100
  -0.018115225000  -0.030429902100  -0.025417112800   0.076564980900
  -0.063632999800  -0.028827202500  -0.237640640300  -1.967217940700
  -0.222163641000  -0.752694563400  -1.709658347300   2.593664248000
  -0.404104783100  -0.530306000000   2.678965430300  -0.996091370600
  -0.348108109400   0.952467619600  -1.033386314700  -0.743690858400
  -0.092721325100   0.194410429700  -0.248623701900   0.809165339900
* p-type functions
    6    3
          9.88000000
          3.95000000
          1.58000000
          0.63000000
          0.25000000
          0.10000000
   0.005531224000  -0.028060094700   0.005639891400
   0.005323242800   0.034370422000  -0.413961385000
   0.150384747100  -0.894015866000  -1.169068266000
   0.582944393900  -0.247268769200   2.068057290300
   0.339947055200   0.848782689300  -1.110592133100
   0.031749405100   0.022820355900  -0.034274115100
* d-type functions
    4    2
          4.00000000
          1.60000000
          0.64000000
          0.26000000
   0.002201103000  -0.053956186900
  -0.278252480600  -1.052382707500
  -0.665042829600   0.344411892100
  -0.174847619200   0.513052314300
* f-type functions
    3    1
          2.50000000
          1.00000000
          0.40000000
  -0.113198991300
  -0.724025697300
  -0.287862070400

/He.ANO-ORCA.Neese.10s5p4d3f2g.6s5p4d3f2g.
F. Neese, E. Valeev. J. Chem. Theory Comput. 7 (2011) 33-43. doi:10.1021/ct100396y
HELIUM (10s,5p,4d,3f,2g) -> [6s,5p,4d,3f,2g]
     2.0   4
* s-type functions
   10    6
       4785.00000000
        717.00000000
        163.20000000
         46.26000000
         15.10000000
          5.43700000
          2.08800000
          0.82970000
          0.33660000
          0.13690000
   0.000060320200   0.000088873100   0.000128705400  -0.000248959400   0.000423729100   0.000086618800
   0.000468496000   0.000694021400   0.001147767800  -0.000703048700  -0.000029688400  -0.005371418600
   0.002450146700   0.003643397100   0.005098380100  -0.013766309700   0.027400349800   0.015043076400
   0.010155383500   0.015746258200   0.030632287300  -0.018576276500   0.021524818400  -0.285149213500
   0.035034033300   0.061400964600   0.139615961100  -0.594511205900   1.814666845900  -1.022380440800
   0.099279734100   0.241475509900   0.857718403400  -0.984090808100  -3.097961110600   3.434698615800
   0.217387130300   0.611964132300   0.094806484900   3.117276675600   1.816354989900  -5.568378377200
   0.347268216700   0.196132944200  -1.725050796300  -2.424000491900   0.857383426200   6.531228518400
   0.344557817400  -0.724164219500   0.654259777100   0.002140502500  -2.432718530600  -5.410589557200
   0.118026005300  -0.338281481400   0.529420091100   0.770746664500   1.501682215400   2.327625443500
* p-type functions
    5    5
          0.38700000
          0.98400000
          2.49800000
          6.34200000
         16.10400000
   0.288744288700  -0.654417327900   1.089257331200  -1.272028322700   0.691631175900
   0.536134244900  -0.275230872400  -1.074809862600   2.486492716000  -1.788717032900
   0.265902007700   0.799308320800  -0.412313414300  -2.289266700300   2.774922141500
   0.040070208300   0.267165312600   0.971367399000   0.703956123700  -3.067570084700
   0.009038583200   0.031005914500   0.105039223700   0.538684617600   1.871666477100
* d-type functions
    4    4
          0.74700000
          1.91000000
          4.88600000
         12.49800000
   0.465842919100  -0.895623176600   1.022423961100  -0.608109573300
   0.537343596000   0.373022255200  -1.620322036200   1.429289839900
   0.130942192300   0.657781906300   0.876542076700  -1.968657042700
   0.007135095800   0.049887312000   0.381506361200   1.511461398100
* f-type functions
    3    3
          1.29200000
          3.46200000
          9.27600000
   0.676963375100  -0.928656115100   0.614470243400
   0.425329184900   0.894633046200  -1.253546061500
   0.027837614900   0.296546176100   1.268729257100
* g-type functions
    2    2
          2.23600000
          6.58600000
   0.882757469600  -0.704537645100
   0.213453068700   1.109086034100

/Li.ANO-ORCA.Neese.19s8p3d2f1g.8s5p3d2f1g.
F. Neese, E. Valeev. J. Chem. Theory Comput. 7 (2011) 33-43. doi:10.1021/ct100396y
LITHIUM (19s,8p,3d,2f,1g) -> [8s,5p,3d,2f,1g]
     3.0   4
* s-type functions
   19    8
      70681.00000000
      13594.00000000
       3100.40000000
        826.46000000
        253.76000000
         88.45100000
         34.49300000
         14.83100000
          6.92990000
          3.46780000
          1.83160000
          1.00630000
          0.56678000
          0.32254000
          0.18277000
          0.10164000
          0.05466600
          0.02802500
          0.01349700
   0.000005323600   0.000000857700   0.000008042300   0.000011375400   0.000013372600  -0.000020916800   0.000030724900  -0.000013628800
   0.000032374700   0.000005216000   0.000049003200   0.000071122400   0.000075694600  -0.000057193300   0.000041350000   0.000459915500
   0.000187960300   0.000030286600   0.000284240000   0.000400728700   0.000484140100  -0.000845987000   0.001311204100  -0.001213525000
   0.000871221900   0.000140458800   0.001326502900   0.001957383700   0.002081242700  -0.001305204900   0.000569401500   0.015644667700
   0.003383670000   0.000546352500   0.005209729400   0.007613990600   0.010055926700  -0.020228014000   0.035316886600  -0.029395434800
   0.011049478900   0.001791866100   0.017988223800   0.031736041300   0.043391800700  -0.045652370400   0.092051059600   0.596308597400
   0.030595597900   0.005012007400   0.057197454000   0.134215264400   0.306478607000  -0.799411855400   1.940583603200   1.448730994200
   0.070734114900   0.011837580900   0.178258163000   0.584227771800   1.057565906000  -0.727232357900  -3.432919393100  -7.206775769300
   0.134555716300   0.023364310600   0.429897013400   0.680609017200  -1.099183394200   4.020003205600  -0.171639059600  13.757921194300
   0.206961591600   0.038186740600   0.450865827500  -1.005098610400  -1.667416486600  -3.156132102700   7.384200097700 -16.026933009600
   0.259108571900   0.053678904700  -0.037135288000  -0.944670188000   1.491768173200  -1.566908371600 -10.530958177900  10.608467427200
   0.246866156700   0.068334748700  -0.487212099300   0.095613054000   1.085229235400   2.179036036800   5.772093975700  -1.738404786800
   0.150116229000   0.074947186100  -0.462766855300   0.697462191600   0.152057020000   1.816672624000  -0.394577336100  -1.496634857200
   0.044827255700   0.059248225000  -0.160128984500   0.395465840500  -1.506190562000  -2.161855656700   0.944729803700  -1.543201890100
   0.003575528700  -0.026074994500  -0.011623696700   0.071480995800  -0.061100340500  -0.225984185300  -2.421943484900   2.759909139100
   0.000315460900  -0.222043244400   0.066110374300  -0.081897875000  -0.018134917500  -0.066083035100   1.009402014700  -0.870190212700
   0.000536622000  -0.473451586000   0.135132196200  -0.159881592000   0.302172980100   0.316146605500  -0.275482203400   0.427108817300
   0.000457424400  -0.362075446500   0.104706423700  -0.128275016200   0.181474996800   0.195471335600   0.377265155200  -0.518677537100
   0.000047159300  -0.040734393400   0.011675145700  -0.014108323800   0.027374113700   0.032662890500   0.002063962900  -0.036145650000
* p-type functions
    8    5
         28.50000000
          6.64000000
          1.92000000
          0.77000000
          0.32000000
          0.15000000
          0.06600000
          0.02500000
   0.018987019200   0.027471890500   0.112461275100   0.316258947100   1.128034136100
   0.314107275700   0.309097804900   0.801533671000   0.699579434500  -1.134154659700
   0.661727662300   0.322503617100  -0.359425525300  -1.864283456400   0.692053214800
   0.088606628800  -0.378769172500  -0.753103356200   1.813472240300   0.269013262000
   0.115657048600  -0.432978084100   0.349933626400  -0.276558517400  -1.191374645800
  -0.064717132200  -0.289609514400   0.367052139200  -0.262329759100   0.883353673600
   0.026940810100  -0.105459800200   0.171099142200  -0.297471558100  -0.085086976400
  -0.007477571400  -0.009188791600   0.007659378200   0.014059358000   0.068634113200
* d-type functions
    3    3
          1.75000000
          0.30000000
          0.11000000
   1.003497397000   0.324860741200   0.129242167400
  -0.017423556300  -1.143794719600  -0.811803463200
   0.021447596500   0.148140009000   1.334548312600
* f-type functions
    2    2
          0.50000000
          0.20000000
   1.121834528300   0.641531531100
  -0.214174951300  -1.274442821200
* g-type functions
    1    1
          0.55000000
   1.000000000000

/Be.ANO-ORCA.Neese.19s8p3d2f1g.8s5p3d2f1g.
F. Neese, E. Valeev. J. Chem. Theory Comput. 7 (2011) 33-43. doi:10.1021/ct100396y
BERYLLIUM (19s,8p,3d,2f,1g) -> [8s,5p,3d,2f,1g]
     4.0   4
* s-type functions
   19    8
     139330.00000000
      26774.00000000
       6112.00000000
       1632.90000000
        503.03000000
        176.03000000
         68.93900000
         29.76800000
         13.96300000
          7.00900000
          3.70940000
          2.03920000
          1.14720000
          0.65070000
          0.36659000
          0.20211000
          0.10742000
          0.05423100
          0.02561900
   0.000004813700   0.000000896600  -0.000001338800  -0.000002347700   0.000003727600  -0.000005127800  -0.000007191500   0.000007456200
   0.000029295000   0.000005456600  -0.000008144900  -0.000014179800   0.000023644000  -0.000033890000  -0.000024805000   0.000038995800
   0.000169653400   0.000031604200  -0.000047201000  -0.000082944600   0.000130158300  -0.000177246800  -0.000281419600   0.000273087500
   0.000783798800   0.000146094500  -0.000218114400  -0.000379581800   0.000640610700  -0.000928233300  -0.000569957700   0.001027692200
   0.003029660400   0.000565594800  -0.000845637900  -0.001495272600   0.002325002600  -0.003155439200  -0.005867264100   0.005391024000
   0.009868896200   0.001850497600  -0.002770099800  -0.004860547500   0.008638833300  -0.013252378200  -0.005448209400   0.015412099800
   0.027315863900   0.005173820700  -0.007801866900  -0.014420402600   0.023489831300  -0.035667241500  -0.091314293300   0.096324857200
   0.063883997500   0.012358807600  -0.018862334500  -0.035987674500   0.081496876200  -0.160911260300  -0.088000616700   0.318115465900
   0.124475533100   0.025020925200  -0.039304589500  -0.087144117300   0.168041682100  -0.291191747800  -0.936610073200   0.690390841400
   0.199794514300   0.042992132400  -0.068663953700  -0.138293538100   0.337740399900  -0.460099334100   1.697442857400  -1.874359439900
   0.260302498600   0.064005383900  -0.101644502500  -0.182972883100  -0.163866953600   1.032862588700  -4.135029765400   5.157745805200
   0.256116682100   0.083730928200  -0.129787737500  -0.081713528800   0.827444509400  -3.541475724200   9.435680184500 -18.781398865800
   0.160223838600   0.088600442700  -0.178094163500  -0.736377500500  -0.655850937100  11.803033973500  -7.693011765100  40.555041605600
   0.047917244600   0.045333936800  -0.047515310900   1.738042698400  -5.180733633600 -15.874287123700  -6.418773476400 -54.959553078400
   0.004051938000  -0.077450349900   0.722048536600   1.646659277700   8.139422817100   7.622413339000  21.068574700400  51.645100626100
   0.000055325300  -0.276957507900   0.993782108700  -2.587136908800  -2.471050527300   3.281942248600 -23.151258890700 -34.979669951400
  -0.000014632900  -0.453239609600  -0.370738875800  -0.817785280700  -2.508987285600  -5.735803224600  14.060720825000  16.448765560200
   0.000005422800  -0.301158473000  -0.902262037000   1.251421044200   1.477910774800   2.104006856000  -4.239753490100  -4.459632711200
   0.000000000000  -0.033144213900  -0.116365224600   0.196797814900   0.250688590100   0.168744368200   0.157548389700   0.282618880900
* p-type functions
    8    5
         45.70000000
         10.60000000
          3.08000000
          1.23000000
          0.51000000
          0.23000000
          0.10600000
          0.04000000
   0.000559857700   0.000886234700  -0.003764360600   0.005184958700   0.077094341500
   0.004923093600   0.030661940900  -0.030283967600  -0.069475356100   0.468948687800
   0.019882149900   0.031921530800  -0.148177084600   0.488098114000   0.951650179700
   0.039451821000   0.631896986500  -0.682266090600   0.913186515600  -1.766209189200
   0.163060243700  -0.769565172600   3.032879831800  -0.728229566600   1.185818170900
   0.411157813300  -1.140990712100  -3.364154033400   0.285609374800   0.129386502500
   0.442934754400   1.491925186500   1.166950520400  -0.056498589400  -1.066027349200
   0.068867646000   0.009126508700   0.285432402800  -0.323778526300   0.853721826900
* d-type functions
    3    3
          3.35000000
          0.57000000
          0.21000000
   0.025009950800   0.212250645400   1.039850750500
  -0.091635555100  -1.390084628500  -0.185713644400
  -0.939409469200   0.963155381200   0.058307047500
* f-type functions
    2    2
          0.75000000
          0.30000000
   0.034303543300   1.291858615000
   0.977918986600  -0.844837185400
* g-type functions
    1    1
          0.80000000
   1.000000000000

/B.ANO-ORCA.Neese.16s10p5d4f3g2h.8s6p5d4f3g2h.
F. Neese, E. Valeev. J. Chem. Theory Comput. 7 (2011) 33-43. doi:10.1021/ct100396y
BORON (16s,10p,5d,4f,3g,2h) -> [8s,6p,5d,4f,3g,2h]
     5.0   5
* s-type functions
   16    8
     210400.00000000
      31500.00000000
       7169.00000000
       2030.00000000
        662.50000000
        239.20000000
         93.26000000
         38.64000000
         16.78000000
          7.54100000
          3.48200000
          1.61800000
          0.62700000
          0.29340000
          0.13100000
          0.05815000
   0.000005841900   0.000001128000  -0.000001535100  -0.000002184100  -0.000003431300  -0.000003675300  -0.000005744700  -0.000020200500
   0.000045414600   0.000008760700  -0.000011959100  -0.000015648600  -0.000016565000  -0.000035625400  -0.000096923400   0.000023979600
   0.000238902900   0.000046161800  -0.000062741600  -0.000092505500  -0.000164270100  -0.000133959200  -0.000112912000  -0.001255251900
   0.001007900000   0.000194532100  -0.000265978800  -0.000334241900  -0.000265044800  -0.000866799800  -0.002704198600   0.002353238700
   0.003652952300   0.000708258000  -0.000961774900  -0.001475707700  -0.002938549500  -0.001809499900   0.000186957700  -0.027021511300
   0.011762237500   0.002286856600  -0.003137367600  -0.003775175200  -0.001805995700  -0.011565434900  -0.041244650100   0.046919682200
   0.033882834300   0.006702051000  -0.009128007000  -0.014889087100  -0.033874561900  -0.017546328000   0.006919290900  -0.416148347900
   0.085765702600   0.017406558500  -0.024228633200  -0.028640784900  -0.006403564600  -0.124964238100  -0.547780454400   0.209091371300
   0.183056486000   0.039753871200  -0.055338506300  -0.104473207300  -0.287266452200  -0.147158528100   0.144080552100  -3.163240058800
   0.306666684800   0.075476823900  -0.108482785800  -0.109560409600   0.188100583800  -0.453070270700  -2.341792077700   8.659095677200
   0.342030541700   0.119030783700  -0.174847234100  -0.418583688800  -1.494436481100  -0.543407116700   7.186021379000 -10.902821619800
   0.176739580100   0.109247041000  -0.193191015800   0.139756179600   2.834901197400   4.233524773700  -8.485172539300   8.287175220900
   0.016187142000  -0.113752583900   0.738648583800   2.404877083500  -0.514651672000  -8.344817695800   7.601320204600  -5.537244655700
  -0.007252442600  -0.440136580700   0.964533867500  -2.231922553900  -3.446611872200   9.585305468300  -6.157440200600   3.930691758600
  -0.004566116600  -0.464488538000  -0.867885484700  -0.864037176900   4.805015839600  -6.454276476300   3.283431422500  -1.921472099200
  -0.001739312900  -0.127588012000  -0.583913175600   1.455257898700  -2.358438238100   2.262235060300  -0.996482871600   0.552164589900
* p-type functions
   10    6
        192.50000000
         45.64000000
         14.75000000
          5.50300000
          2.22200000
          0.95900000
          0.43140000
          0.19690000
          0.09033000
          0.04066000
   0.000134858000   0.000103811900   0.000390296000   0.001043205900  -0.000474544400  -0.002297823000
   0.001148317100   0.001002979900   0.003587238800   0.004463251200  -0.012507916100   0.065693359800
   0.005842816100   0.004402750300   0.018161463800   0.053639755000  -0.032266012100  -0.032619125200
   0.021075828300   0.015959090800   0.078031937500   0.126161392700  -0.322820943500   1.367478544100
   0.061196010000   0.014086637200   0.245541210300   0.988345401000  -1.200948249800  -1.957264800800
   0.153071075800   0.203602505700   0.829640072200  -0.358238025500   3.449367850500   0.869872855600
   0.294324162000   0.640561072000  -0.288444587000  -1.684940625800  -3.850388784100   1.197601900400
   0.364270435600   0.013804332800  -1.157576544400   2.115398518100   1.992457400900  -3.055903271300
   0.258530923700  -0.723955149100   0.547808332700  -0.627034082100   0.215848262300   3.363525150200
   0.071705308900  -0.286154751400   0.367890885300  -0.378239319200  -0.719531407300  -1.731194867100
* d-type functions
    5    5
          2.88600000
          1.26700000
          0.55600000
          0.24400000
          0.10700000
   0.012486408000  -0.044936711900   0.023987260900   0.511400794200   1.799108251300
   0.064616632500   0.253698751200   1.091057458300   0.693617335700  -2.814228335000
   0.352364034300   0.865924761500  -0.544199667100  -2.071174004700   2.589548278100
   0.491827217900  -0.451243401100  -0.876208719800   2.318725175900  -1.746800953800
   0.248523179700  -0.580249321800   0.972524215100  -1.283743483700   0.706642855300
* f-type functions
    4    4
          1.65100000
          0.80020000
          0.38780000
          0.18800000
   0.026138962000   0.098622706600   0.858620859700   1.651352318300
   0.304593559000   0.967182567300   0.032546797500  -2.821880878400
   0.497810564900  -0.313532845800  -1.377650144400   2.598374469500
   0.321518618800  -0.647508704500   1.158953373700  -1.269192679400
* g-type functions
    3    3
          1.64690000
          0.78890000
          0.37790000
   0.044623135900   0.403153874600   1.496204152800
   0.502762542700   0.825668422800  -1.846938366900
   0.558165701800  -1.063111756800   0.980508884600
* h-type functions
    2    2
          1.31200000
          0.58060000
   0.302526552900   1.202355533500
   0.790935017400  -0.954779001800

/C.ANO-ORCA.Neese.16s10p5d4f3g2h.8s6p5d4f3g2h.
F. Neese, E. Valeev. J. Chem. Theory Comput. 7 (2011) 33-43. doi:10.1021/ct100396y
CARBON (16s,10p,5d,4f,3g,2h) -> [8s,6p,5d,4f,3g,2h]
     6.0   5
* s-type functions
   16    8
     312100.00000000
      46740.00000000
      10640.00000000
       3013.00000000
        982.80000000
        354.80000000
        138.40000000
         57.35000000
         24.92000000
         11.23000000
          5.20100000
          2.42600000
          0.96730000
          0.44560000
          0.19710000
          0.08635000
   0.000005688800   0.000001151700   0.000001461500  -0.000002072900  -0.000003147700  -0.000003299600  -0.000004774800  -0.000019768700
   0.000044212200   0.000008940100   0.000011399600  -0.000015224400  -0.000015666300  -0.000033419400  -0.000090943500   0.000026641200
   0.000232471700   0.000047106700   0.000059649100  -0.000086837800  -0.000149447200  -0.000116739100  -0.000069240700  -0.001234801900
   0.000981398300   0.000198530500   0.000253756100  -0.000329424800  -0.000258557000  -0.000824381600  -0.002583797500   0.002406888200
   0.003560485800   0.000724115900   0.000915187600  -0.001372296200  -0.002657587500  -0.001510021800   0.000954746800  -0.026610536700
   0.011469247800   0.002337303100   0.002999707500  -0.003779540400  -0.001875906900  -0.011070933700  -0.039667230000   0.048765883500
   0.033082548700   0.006869272700   0.008690227000  -0.013646938400  -0.030230789000  -0.013210897300   0.020275726000  -0.398091726300
   0.084273920200   0.017951406700   0.023351320000  -0.029074871800  -0.006161924700  -0.114280497600  -0.508039192200   0.279701520400
   0.181183520700   0.041487165300   0.053296304700  -0.093995420100  -0.252031451900  -0.103411559800   0.244911305100  -3.515952507800
   0.305872660900   0.079591623200   0.107142133800  -0.127039888500   0.128803497000  -0.561518044300  -2.843784043900   9.040612353800
   0.342899662400   0.125824977600   0.171571164000  -0.390368865300  -1.432540743300  -0.573786367100   7.957901895100 -11.057623670100
   0.178520312200   0.106822824100   0.181050614300   0.096769020900   2.652863679700   4.549879360000  -9.215870233300   8.378988371000
   0.017492905700  -0.128639081000  -0.661896970500   2.183171179700  -0.034817177800  -8.461301980900   7.900421189700  -5.458592598300
  -0.006938185600  -0.439866540600  -0.941374990000  -1.638058731900  -3.935370541700   9.220828536600  -6.063243099100   3.684201664800
  -0.004589592600  -0.446202570500   0.689663676000  -1.366131821200   4.904283437400  -6.003542084100   3.164997077700  -1.771390730500
  -0.001778701000  -0.139613779700   0.707911640300   1.601118008300  -2.287202596700   2.043080682300  -0.945862785300   0.503151130900
* p-type functions
   10    6
        295.20000000
         69.98000000
         22.64000000
          8.48500000
          3.45900000
          1.50400000
          0.67830000
          0.30870000
          0.14000000
          0.06178000
   0.000142953600   0.000164119100   0.000406304700   0.000939788300   0.000600288300  -0.002147872700
   0.001224890700   0.001501455100   0.003596759000   0.004084524400   0.011435590500   0.049979778100
   0.006358923900   0.007376919100   0.019755002000   0.049223884200   0.041120314900  -0.050016043000
   0.023588480800   0.028431784200   0.082567583900   0.122840540300   0.329066407000   1.261247596600
   0.069677773100   0.067478371300   0.283930167600   0.922898601700   1.211334816600  -1.644370911200
   0.166446414900   0.285759123900   0.777020255300  -0.297006763400  -3.369150470000   0.326512456700
   0.293356499400   0.558607497200  -0.443564825800  -1.734470831200   3.559213350100   1.846619793500
   0.351201757200  -0.089851908300  -1.038844540700   2.068488073400  -1.610821124100  -3.562698314400
   0.256386886800  -0.654650765000   0.573532239800  -0.475211337100  -0.458090963700   3.595008060100
   0.076216916500  -0.260439144800   0.386981582300  -0.479976818100   0.784735894100  -1.783999876300
* d-type functions
    5    5
          4.54200000
          1.97900000
          0.86210000
          0.37560000
          0.16360000
   0.014388904800  -0.000763546200   0.032902526200   0.543371225400   1.764582907200
   0.071398942000   0.307148920600   1.067126267300   0.610911945600  -2.766478611200
   0.357076052200   0.774419900300  -0.596492718000  -2.011387406900   2.547726319000
   0.480335412600  -0.424221516700  -0.831016860400   2.267234675400  -1.737833433100
   0.255117644900  -0.569104608800   0.984926566000  -1.236920064200   0.720312438100
* f-type functions
    4    4
          2.63100000
          1.25500000
          0.59880000
          0.28570000
   0.033491470400   0.147638611500   0.881795247100   1.571877127000
   0.298354910100   0.893598301300  -0.044694215300  -2.703345880400
   0.516839650000  -0.277160187700  -1.268111202700   2.499740227500
   0.306133004100  -0.653414914100   1.111216826500  -1.231991057300
* g-type functions
    3    3
          2.65200000
          1.20400000
          0.54700000
   0.048037589000   0.398762942600   1.389250105200
   0.501466499900   0.793611106300  -1.628193066200
   0.570802036500  -1.009723482400   0.865057655700
* h-type functions
    2    2
          2.03000000
          0.85110000
   0.318473450400   1.155486231500
   0.788487715200  -0.902696456600

/N.ANO-ORCA.Neese.16s10p5d4f3g2h.8s6p5d4f3g2h.
F. Neese, E. Valeev. J. Chem. Theory Comput. 7 (2011) 33-43. doi:10.1021/ct100396y
NITROGEN (16s,10p,5d,4f,3g,2h) -> [8s,6p,5d,4f,3g,2h]
     7.0   5
* s-type functions
   16    8
     432300.00000000
      64700.00000000
      14720.00000000
       4170.00000000
       1361.00000000
        491.20000000
        191.60000000
         79.41000000
         34.53000000
         15.58000000
          7.23200000
          3.38200000
          1.36900000
          0.62480000
          0.27470000
          0.11920000
   0.000005593600   0.000001237700   0.000001394800  -0.000002072000  -0.000003081900  -0.000003216500  -0.000004552300  -0.000019503100
   0.000043513800   0.000009614600   0.000010907100  -0.000015393000  -0.000016044400  -0.000033807600  -0.000086094400   0.000027436000
   0.000228928700   0.000050701400   0.000056970900  -0.000086557000  -0.000144929900  -0.000111134400  -0.000067626600  -0.001222631500
   0.000965017100   0.000213291100   0.000242756300  -0.000334467200  -0.000275149700  -0.000842930600  -0.002443186700   0.002421360500
   0.003502190400   0.000778459400   0.000872395100  -0.001359980100  -0.002550430800  -0.001379812500   0.000871163100  -0.026335879400
   0.011292116300   0.002513363400   0.002875882800  -0.003866171500  -0.002195485400  -0.011423554300  -0.037428639700   0.049091504300
   0.032612826500   0.007397248000   0.008294276700  -0.013470204900  -0.028769719500  -0.011316595800   0.019821120700  -0.391444566500
   0.083297269700   0.019353147500   0.022505394800  -0.030026672800  -0.009423921700  -0.117482478600  -0.476110284100   0.300539050600
   0.179985658100   0.044944601400   0.051209350700  -0.092531658700  -0.238269147800  -0.085695975100   0.229101222300  -3.625412548400
   0.305003513000   0.086243194500   0.104849727200  -0.138615171400   0.083209299000  -0.652878430000  -2.917399873600   9.201693797500
   0.341159311700   0.134250975900   0.164429023900  -0.382493166400  -1.371042889000  -0.418727603300   8.177451712000 -11.218222200200
   0.177482696600   0.106013877700   0.171055871500   0.095487085900   2.581079128600   4.485128936600  -9.570517447000   8.543952752300
   0.019884095700  -0.138417091800  -0.597499063800   2.046966436100   0.096837520600  -8.339170276100   8.135177254800  -5.506623064800
  -0.001246634800  -0.439126759900  -0.910291398300  -1.300833665800  -4.028728783800   8.928005894200  -6.102641926300   3.613570127000
   0.001040103900  -0.431343580900   0.523452769100  -1.618513359800   4.837274714500  -5.745471706100   3.161758406100  -1.720721758300
  -0.000126586000  -0.150718609100   0.820052143900   1.642640123600  -2.203943487400   1.930093227700  -0.938548901700   0.485227620400
* p-type functions
   10    6
        415.90000000
         98.61000000
         31.92000000
         12.00000000
          4.91900000
          2.14800000
          0.96960000
          0.43990000
          0.19780000
          0.08603000
   0.000149351500   0.000195109000   0.000416269200   0.000901630000  -0.000624920700  -0.001968526400
   0.001285278000   0.001757019500   0.003642536300   0.004095405300  -0.011871177500   0.045789242200
   0.006748216700   0.008993523300   0.020877538900   0.048081949000  -0.045761797700  -0.044397055400
   0.025448084300   0.035401786500   0.086951569300   0.128308816000  -0.356236874600   1.220603674700
   0.075574364300   0.097014419200   0.301954564600   0.901303025900  -1.154765033900  -1.574216040400
   0.175828080200   0.324562520700   0.748192431600  -0.325605451300   3.283108028900   0.211252256800
   0.296219513100   0.507018547100  -0.536601609200  -1.689169895900  -3.428095853900   1.972159307400
   0.344109940500  -0.145468019500  -0.962402874500   2.024691012900   1.483162161100  -3.615830423400
   0.250361577300  -0.620130974300   0.597938688200  -0.424307684700   0.520944635300   3.569825730000
   0.076393122000  -0.242720658400   0.381282294800  -0.512947321300  -0.799351430500  -1.761241802400
* d-type functions
    5    5
          6.71700000
          2.89600000
          1.24900000
          0.53800000
          0.23200000
   0.015353202500   0.013305729600   0.028016338900   0.508675681700   1.740801344200
   0.073937784000   0.312470144300   1.029773959200   0.666288242000  -2.672039588400
   0.361114918300   0.743203705900  -0.536709654100  -2.023393336700   2.411593648700
   0.478400826100  -0.399952196800  -0.872352861500   2.221362699500  -1.626531112500
   0.254877564800  -0.577366313200   1.005312985500  -1.193738953800   0.675144141900
* f-type functions
    4    4
          3.82900000
          1.79500000
          0.84100000
          0.39400000
   0.036215505400   0.166518151600   0.876098593900   1.507950901900
   0.300102167000   0.861159608700  -0.065146706100  -2.564616893400
   0.530147508800  -0.270289763900  -1.203917040400   2.366928740300
   0.293011802200  -0.647901355000   1.080247062700  -1.180349297200
* g-type functions
    3    3
          3.85600000
          1.70200000
          0.75100000
   0.049226779400   0.395217879900   1.342205089100
   0.502019685800   0.780336797800  -1.527464750300
   0.577063843700  -0.984883952800   0.810056669100
* h-type functions
    2    2
          2.87500000
          1.17000000
   0.328054013800   1.132286593600
   0.786780389100  -0.877877545800

/O.ANO-ORCA.Neese.16s10p5d4f3g2h.8s6p5d4f3g2h.
F. Neese, E. Valeev. J. Chem. Theory Comput. 7 (2011) 33-43. doi:10.1021/ct100396y
OXYGEN (16s,10p,5d,4f,3g,2h) -> [8s,6p,5d,4f,3g,2h]
     8.0   5
* s-type functions
   16    8
     570800.00000000
      85480.00000000
      19460.00000000
       5512.00000000
       1798.00000000
        648.90000000
        253.10000000
        104.90000000
         45.65000000
         20.62000000
          9.58700000
          4.49300000
          1.83700000
          0.83490000
          0.36580000
          0.15700000
   0.000005547700   0.000001261900  -0.000001495600  -0.000002101200  -0.000002965500  -0.000002909500  -0.000003739600  -0.000019831900
   0.000043111400   0.000009794200  -0.000011678200  -0.000015304600  -0.000014754900  -0.000033685300  -0.000083855600   0.000035357200
   0.000226687800   0.000051608200  -0.000061004900  -0.000088318800  -0.000140792900  -0.000092976600  -0.000024406400  -0.001258745700
   0.000956446100   0.000217376000  -0.000259966200  -0.000329606500  -0.000243171400  -0.000863313800  -0.002432473200   0.002698805900
   0.003473480600   0.000793634000  -0.000935972900  -0.001401180000  -0.002502879800  -0.001008865100   0.001715585800  -0.027261550200
   0.011198672200   0.002563682800  -0.003081663500  -0.003769706100  -0.001754379000  -0.011951321100  -0.037633439400   0.054401441600
   0.032390291400   0.007554064900  -0.008918830600  -0.014031873300  -0.028409746100  -0.006226248200   0.032889608200  -0.398431860300
   0.082866691700   0.019825284700  -0.024214584200  -0.028952578700  -0.004522337800  -0.121845771800  -0.463979393700   0.398444622600
   0.179599915100   0.046222611300  -0.055559200800  -0.098206290100  -0.235927736600  -0.034243817200   0.360130450800  -3.916150068600
   0.305252294600   0.089362347300  -0.114527593500  -0.130740865100   0.101596219100  -0.767798077100  -3.348535903200   9.449430990200
   0.340941604400   0.138343461900  -0.182885363600  -0.433993968700  -1.457263853100  -0.275308900400   8.766970399900 -11.210461502800
   0.177462874600   0.105181306700  -0.175395843100   0.177427381400   2.842345108200   4.392304582600 -10.087642215300   8.426793565600
   0.020440405600  -0.149165904700   0.713860208200   2.186588440900  -0.429048820200  -8.262734678300   8.445205702600  -5.347591161100
  -0.001122547600  -0.443538638800   0.883104152400  -1.848860224800  -3.509019974700   8.880300992700  -6.246782473600   3.438935185800
   0.000901550300  -0.430421768300  -0.722845011600  -1.062633526700   4.635703661400  -5.795260987500   3.236256215600  -1.624128245600
  -0.000142089000  -0.139284763000  -0.662903049800   1.464441154900  -2.217141596700   1.981177965400  -0.965072920800   0.455726903600
* p-type functions
   10    6
        525.60000000
        124.60000000
         40.34000000
         15.18000000
          6.24500000
          2.73200000
          1.22700000
          0.54920000
          0.24180000
          0.10250000
   0.000167663100   0.000204132700   0.000339750900   0.000684390400   0.000993591300  -0.000545790000
   0.001443416000   0.001799216200   0.003059716600   0.003831752600   0.005291500400   0.024592987300
   0.007597328900   0.009354974900   0.016672260100   0.035503590000   0.055464916200  -0.003950413500
   0.028804989400   0.036161298100   0.069110671000   0.104217454400   0.179158124500   0.707173376000
   0.084941981400   0.104785215000   0.224673929800   0.614243605100   1.193363316200   0.219407205600
   0.189963117400   0.313224909300   0.638777041600   0.317142496400  -2.019900111500  -2.669009301400
   0.299047865000   0.446483312900  -0.224450372800  -1.668833126800   0.507600519300   4.604110247200
   0.332056996500  -0.116219022000  -0.938196350200   0.810283364300   1.733145101300  -4.795331940400
   0.241992084600  -0.539812159000   0.116475903700   0.925078448400  -2.438951604400   3.344177678600
   0.083633724500  -0.346845176500   0.736644552400  -1.038206605300   1.284276307600  -1.281919355200
* d-type functions
    5    5
          8.25300000
          3.59700000
          1.56800000
          0.68400000
          0.29800000
   0.020400571900   0.025304095600   0.094361801000   0.548120076200   1.762135536200
   0.094136958500   0.369383219700   0.981518454600   0.568617060400  -2.804340539000
   0.396477090900   0.650550864900  -0.599275980800  -2.023453018000   2.578061297100
   0.455360161000  -0.411645852100  -0.818242990100   2.296193184300  -1.727254651900
   0.220405729500  -0.580497766300   1.008810895800  -1.234342913900   0.697629694600
* f-type functions
    4    4
          5.43000000
          2.41600000
          1.07500000
          0.47800000
   0.033522829000   0.156432142400   0.699021688700   1.442689761200
   0.288431164600   0.782331300900   0.232166447700  -2.218731977200
   0.527243779800  -0.112978626000  -1.322950312200   1.904172626400
   0.329660777900  -0.711943484000   1.065288607800  -0.917459634200
* g-type functions
    3    3
          5.21100000
          2.19000000
          0.92000000
   0.059175924200   0.390027917100   1.272293886100
   0.501539449500   0.758624418300  -1.380326476200
   0.585324027700  -0.950669772700   0.725965037800
* h-type functions
    2    2
          3.87200000
          1.50500000
   0.315809493800   1.107936789100
   0.804877218900  -0.824276790600

/F.ANO-ORCA.Neese.16s10p5d4f3g2h.8s6p5d4f3g2h.
F. Neese, E. Valeev. J. Chem. Theory Comput. 7 (2011) 33-43. doi:10.1021/ct100396y
FLUORINE (16s,10p,5d,4f,3g,2h) -> [8s,6p,5d,4f,3g,2h]
     9.0   5
* s-type functions
   16    8
     723500.00000000
     108400.00000000
      24680.00000000
       6990.00000000
       2282.00000000
        824.60000000
        321.80000000
        133.50000000
         58.11000000
         26.28000000
         12.24000000
          5.74700000
          2.36500000
          1.07100000
          0.46810000
          0.19940000
   0.000005555300   0.000001302600  -0.000001581200  -0.000002213800  -0.000003034100   0.000002515100  -0.000003551800  -0.000019995600
   0.000043155300   0.000010107700  -0.000012334800  -0.000015719400  -0.000014655200   0.000036798900  -0.000079784500   0.000039870900
   0.000226888200   0.000053243500  -0.000064482600  -0.000093946200  -0.000144999100   0.000062245000  -0.000022764800  -0.001278253700
   0.000957552400   0.000224379700  -0.000274554700  -0.000334204000  -0.000234437300   0.000996331300  -0.002315806900   0.002862568200
   0.003468413000   0.000816840000  -0.000987382600  -0.001503154700  -0.002590195000   0.000281619300   0.001663805600  -0.027770879000
   0.011179650100   0.002639047700  -0.003245079400  -0.003749603000  -0.001548802100   0.014368887700  -0.035713484600   0.057451954300
   0.032312299000   0.007768066400  -0.009408557900  -0.015224506900  -0.029517969500  -0.003761055200   0.032605068300  -0.401748817900
   0.082752028800   0.020424429500  -0.025526796100  -0.028213358300  -0.001866428800   0.149318637900  -0.435128734400   0.456392427400
   0.179778820900   0.047745237100  -0.059049046100  -0.108737960500  -0.246771427400  -0.061003396200   0.364016426500  -4.083540346800
   0.305381571200   0.092473794700  -0.121829593200  -0.121479458900   0.114843835700   1.032343142400  -3.432162530600   9.634509101100
   0.339966883200   0.141959437700  -0.197106234600  -0.512410503700  -1.605505438000  -0.300501232800   8.952689943900 -11.323676516700
   0.176460080500   0.104067344700  -0.174313349300   0.308944626600   3.415451347700  -3.693847396900 -10.394300014300   8.504721888800
   0.021181840000  -0.157152841200   0.801133927700   2.317130957300  -1.561884210200   7.750434088200   8.799976688200  -5.392358577500
   0.000201810000  -0.445384340200   0.843347802600  -2.439884876800  -2.328414661700  -8.749667017200  -6.585194569400   3.457044033200
   0.002012287000  -0.428296901200  -0.843766682600  -0.417998151800   4.035116251500   6.003024058200   3.493428647300  -1.646064345200
   0.000186918000  -0.133422900100  -0.556541526900   1.215556745600  -2.113098280400  -2.147639311700  -1.067885255100   0.466566417900
* p-type functions
   10    6
        660.00000000
        156.40000000
         50.64000000
         19.08000000
          7.87200000
          3.44900000
          1.54500000
          0.68640000
          0.29860000
          0.12450000
   0.000178229200   0.000234347800   0.000396333300   0.000783320900   0.000893118400  -0.000845399400
   0.001536351900   0.002072426000   0.003383046100   0.003776393400   0.006666720900   0.027103909600
   0.008122843400   0.010820681300   0.019690221800   0.040824637700   0.051735731900  -0.018487651300
   0.030945326900   0.042397583800   0.077366694400   0.107905053800   0.221307800100   0.794659129300
   0.090803826300   0.125261741600   0.275392561900   0.743142646700   1.177489574800  -0.124679667200
   0.197614179900   0.355755401800   0.685583994000  -0.013231615400  -2.422100634200  -2.097534568000
   0.300590618000   0.426059781400  -0.498790106000  -1.664137896300   1.432755323600   4.077932216100
   0.326422449900  -0.196265342800  -0.878659405300   1.400813933700   0.767360224500  -4.574177298300
   0.239668526400  -0.553936553100   0.422153704800   0.296819870500  -1.961756289200   3.437035112200
   0.081204096400  -0.262152264000   0.525305083500  -0.834300241500   1.249250379300  -1.428184294100
* d-type functions
    5    5
         10.57300000
          4.61300000
          2.01300000
          0.87800000
          0.38300000
   0.022786316700   0.033868738400   0.116799762500   0.602024980100   1.746254160000
   0.101470166900   0.393252355200   0.996881164800   0.429907708800  -2.828363904000
   0.410653683900   0.620292128100  -0.712061759100  -1.911811093500   2.647268268800
   0.449088535100  -0.443973787200  -0.700093428800   2.275251140200  -1.807153518600
   0.203354826000  -0.556278968100   0.971384861100  -1.255982841700   0.743571199900
* f-type functions
    4    4
          7.56300000
          3.33000000
          1.46600000
          0.64500000
   0.025661857300   0.144730306000   0.634192432600   1.446864295800
   0.272433403000   0.754904453500   0.358868508300  -2.149594936600
   0.542962543200  -0.038287506200  -1.380380106800   1.785040910500
   0.333550323900  -0.748224840800   1.066196126700  -0.839956990100
* g-type functions
    3    3
          6.73500000
          2.78300000
          1.15000000
   0.066240565400   0.404189502100   1.246068065600
   0.508314888400   0.730130636900  -1.345655913600
   0.579472056000  -0.936464779300   0.712553886800
* h-type functions
    2    2
          5.08800000
          1.93700000
   0.309563969200   1.098460088600
   0.813334584500  -0.800581832900

/Ne.ANO-ORCA.Neese.16s10p5d4f3g2h.8s6p5d4f3g2h.
F. Neese, E. Valeev. J. Chem. Theory Comput. 7 (2011) 33-43. doi:10.1021/ct100396y
NEON (16s,10p,5d,4f,3g,2h) -> [8s,6p,5d,4f,3g,2h]
    10.0   5
* s-type functions
   16    8
     902400.00000000
     135100.00000000
      30750.00000000
       8710.00000000
       2842.00000000
       1026.00000000
        400.10000000
        165.90000000
         72.21000000
         32.66000000
         15.22000000
          7.14900000
          2.95700000
          1.33500000
          0.58160000
          0.24630000
   0.000005507100   0.000001296300  -0.000001611500  -0.000002277500  -0.000003142000   0.000001954700  -0.000003692000  -0.000019731900
   0.000042823400   0.000010069000  -0.000012580000  -0.000015887800  -0.000015168000   0.000042419600  -0.000071375600   0.000041479100
   0.000225142500   0.000053040500  -0.000065793900  -0.000097454600  -0.000150381000   0.000015939300  -0.000050957500  -0.001267764700
   0.000950160200   0.000223517100  -0.000279967400  -0.000334413100  -0.000242278600   0.001223400400  -0.002030098200   0.002895296400
   0.003447188500   0.000815055900  -0.001009260800  -0.001572898100  -0.002689212200  -0.000823157100   0.000848365600  -0.027560849900
   0.011125447100   0.002636882200  -0.003318304700  -0.003716145400  -0.001606602300   0.018487560900  -0.030931721000   0.058028519100
   0.032205675200   0.007776008300  -0.009648366900  -0.016099316800  -0.030722872100  -0.019059484900   0.021573059300  -0.396996209500
   0.082598913300   0.020488705900  -0.026188254900  -0.027513019500  -0.001746215300   0.197212199800  -0.377452871300   0.487366639000
   0.179905642000   0.048096654600  -0.060919816600  -0.116504533100  -0.258058757700  -0.207823010800   0.270457039500  -4.181419854000
   0.306052077700   0.093568396200  -0.126041390600  -0.114236147100   0.109640767900   1.460782880800  -3.286977323400   9.743622817000
   0.340125583600   0.143356071800  -0.205488897400  -0.576611990200  -1.752326157300  -1.251677088500   8.849251224400 -11.421321753300
   0.176168221100   0.102155876200  -0.171923360300   0.417635713000   4.049687108900  -2.491434035500 -10.533466432400   8.635801994900
   0.021015278400  -0.162934767300   0.848906099700   2.388409620400  -2.802452473000   6.770235809800   9.181241462700  -5.538922489800
  -0.000507437900  -0.446676168800   0.813169456600  -2.838192464600  -0.968974410000  -8.295367591900  -7.067477086100   3.586358443900
   0.001057857400  -0.425862512200  -0.901853688400   0.049778943500   3.218660934800   6.081169435300   3.901125978700  -1.745541212900
  -0.000059877300  -0.130306294400  -0.499925119000   1.015161241000  -1.892278752600  -2.297538661700  -1.241482228800   0.507724632400
* p-type functions
   10    6
        815.60000000
        193.30000000
         62.60000000
         23.61000000
          9.76200000
          4.28100000
          1.91500000
          0.84760000
          0.36600000
          0.15100000
   0.000184770500   0.000255486400   0.000449349300   0.000908585200   0.000566418500  -0.002189450400
   0.001594109300   0.002257916300   0.003644694800   0.003937744800   0.012640077300   0.044347235800
   0.008465353100   0.011880973100   0.022538548200   0.047582517100   0.040947527100  -0.074605273300
   0.032403061100   0.046968310200   0.084216008500   0.121631161400   0.394944538700   1.396471195500
   0.094718471700   0.140960017800   0.325411552100   0.923118759500   1.090468882900  -1.977189312600
   0.202624168100   0.382289570700   0.722034610600  -0.493897655000  -3.201395232100   0.805429350300
   0.301794970000   0.404957115500  -0.751414381600  -1.468779286300   3.387127925300   1.206213133000
   0.323166975900  -0.248772519400  -0.761544619300   1.923469487700  -1.613673457300  -2.760462900300
   0.237138589500  -0.550555989300   0.636069388900  -0.460892571600  -0.289486565100   2.916102375200
   0.079117629500  -0.214656548300   0.327481185200  -0.479869575900   0.689091249300  -1.533139530600
* d-type functions
    5    5
         13.31700000
          5.80300000
          2.52900000
          1.10200000
          0.48000000
   0.024765899800   0.040298253400   0.126703360400   0.629144289000   1.731552563400
   0.106876554800   0.404860485500   1.006886576100   0.352005413600  -2.822286815200
   0.420540693100   0.599892024400  -0.776361479400  -1.842111024000   2.665430327100
   0.444946874200  -0.461442784200  -0.626967416100   2.253030661800  -1.840792662400
   0.190871283700  -0.544031356600   0.945624371600  -1.262542888000   0.766816424400
* f-type functions
    4    4
         10.35600000
          4.53800000
          1.98900000
          0.87100000
   0.015019713900   0.128591265900   0.562067566600   1.466633180400
   0.251242680100   0.727249916400   0.504034549500  -2.105480964700
   0.575622077900   0.035586208900  -1.448902755000   1.685938131600
   0.319708463500  -0.790839723500   1.076542520500  -0.770576094000
* g-type functions
    3    3
          8.34500000
          3.41700000
          1.39900000
   0.074309148500   0.425020985000   1.227550104900
   0.518961348700   0.694576511100  -1.335648449400
   0.567152430500  -0.926526495800   0.716039608200
* h-type functions
    2    2
          6.51900000
          2.44700000
   0.301306253000   1.093560595400
   0.821855448500  -0.781801672900

/Na.ANO-ORCA.Neese.21s15p3d2f1g.9s5p3d2f1g.
F. Neese, E. Valeev. J. Chem. Theory Comput. 7 (2011) 33-43. doi:10.1021/ct100396y
SODIUM (21s,15p,3d,2f,1g) -> [9s,5p,3d,2f,1g]
    11.0   4
* s-type functions
   21    9
    1918700.00000000
     287270.00000000
      65382.00000000
      18523.00000000
       6045.40000000
       2184.20000000
        853.11000000
        354.69000000
        155.33000000
         71.23400000
         33.83500000
         16.34900000
          8.00820000
          3.67130000
          1.71180000
          0.79147000
          0.35479000
          0.09066400
          0.04431300
          0.02194800
          0.01082100
   0.000002708800   0.000000748500   0.000000109600  -0.000000912100   0.000002031800   0.000003310400  -0.000003109300   0.000003748700   0.000004133300
   0.000021057800   0.000005817700   0.000000851300  -0.000007059700   0.000016196400   0.000025636500  -0.000021630900   0.000030249100   0.000051819500
   0.000110786800   0.000030617800   0.000004482900  -0.000037386200   0.000082230000   0.000135825900  -0.000133418900   0.000151274800   0.000123840100
   0.000467532600   0.000129225900   0.000018909500  -0.000156574600   0.000364715300   0.000570868700  -0.000457848500   0.000690335000   0.001367486200
   0.001701328400   0.000470970800   0.000068989300  -0.000577045300   0.001258461600   0.002122016100  -0.002195805200   0.002373570600   0.001308695400
   0.005515074600   0.001530734600   0.000224129900  -0.001857677200   0.004475913700   0.007046928500  -0.005505852500   0.009346361200   0.021307523300
   0.016230870000   0.004541254000   0.000666689500  -0.005641623200   0.012875621600   0.023444658900  -0.026961861800   0.033472777200   0.029876006800
   0.043139565500   0.012269931400   0.001804449300  -0.015330485600   0.044420151900   0.081772080400  -0.080763662800   0.179792918600   0.457512248600
   0.101486023200   0.029959306300   0.004443750000  -0.040023392500   0.124991099100   0.285414631100  -0.380063901900   0.572375032000   0.578783805400
   0.199394305300   0.063321428400   0.009493141100  -0.084361095000   0.283631890800   0.500959617200  -0.328708099800   0.102592410100  -0.573181785000
   0.308728895800   0.114295474700   0.017617570200  -0.152656527700   0.168789390800   0.021634269400   0.194333968000  -1.565507005800  -3.743758197200
   0.306705230500   0.154163785700   0.024723806700  -0.212193143600   0.187955418600  -0.818359351600   2.252021987600  -1.080274864600   8.738496733500
   0.138088157800   0.089338654600   0.015068559500  -0.108260808000  -0.857604112300  -1.216477188500  -2.244853438200   6.416399075200  -9.116873063200
   0.022892978600  -0.165977410600  -0.032690885700   0.947407488400  -1.254132424900   2.250233978500  -1.884659426200  -9.264210396500   5.486460005000
   0.013295097500  -0.438423508800  -0.090567595100   0.769196128900   1.979355412500   0.135766242800   5.570475498100   7.770933889400  -0.977728508500
   0.013623913900  -0.429104952900  -0.127595008700  -0.953788380800   0.418323561800  -2.451408972000  -5.057079468800  -3.493385694000  -2.466524102000
   0.003738676600  -0.129316723900  -0.122199518100  -0.597900102600  -1.265902490900   1.586647185200   1.662409279000   0.017058902600   3.061223707800
   0.000074457400   0.000440490600   0.266615947100   0.046350397600  -0.217394422600   0.543068683200   1.116058095200   1.774062397700  -3.298849172500
  -0.000009521700  -0.002479394900   0.562246346100   0.218619966700   0.480560744200  -0.752819823100  -1.227711424000  -1.696675523900   2.955762588100
   0.000021370600   0.000962642900   0.279758334900   0.080394264100   0.001038590800   0.103743126900   0.294466422300   0.606215251900  -1.250173522800
   0.000000000000  -0.000404101000   0.018429629300   0.009834667000   0.040341685900  -0.074837165100  -0.138266054200  -0.225486657900   0.440205633700
* p-type functions
   15    5
       3044.20000000
        720.02000000
        234.42000000
         89.66600000
         36.69500000
         16.25600000
          7.65930000
          3.71250000
          1.79920000
          0.86288000
          0.40104000
          0.17759000
          0.08070000
          0.03670000
          0.01670000
   0.000028104100   0.000042216000   0.000081064300   0.000170549800   0.000426148400
   0.000256512000   0.000389098500   0.000759949400   0.001859901200   0.005458107000
   0.001417765200   0.002221410800   0.005413225700   0.014416918300   0.047255659000
   0.006391682500   0.010386194700   0.028230969700   0.084039755000   0.282947543500
   0.023153713700   0.036967952700   0.087002748400   0.203348541600   0.483018168900
   0.065263225500   0.102091536300   0.168528328300   0.288491931600   0.291847697600
   0.144068058700   0.260145450100   0.453896251200   0.453520199400  -0.750406635400
   0.242657237900   0.451233314600   0.128431095100  -0.700918057600  -0.730108365300
   0.306650145800   0.111611823000  -0.781624420300  -0.728177508000   1.580049825900
   0.285522924100  -0.476591870200  -0.301935462400   1.033112874700  -0.403608456400
   0.156904919500  -0.416152570400   0.396610506900   0.268757446200  -0.755678399200
   0.025022311700  -0.099494924700   0.422210267700  -0.560317468800   0.365276572500
   0.000979528500  -0.011730964100   0.152931113600  -0.295466071700   0.259684127700
   0.000143310800  -0.003910166800   0.038597084100  -0.062536387400   0.054947751700
   0.000038285500   0.000209826000  -0.000923869400  -0.000467588800   0.000191703800
* d-type functions
    3    3
          2.35000000
          0.56000000
          0.14000000
   0.848536376600   0.717543388600   0.183690029700
   0.280121912500  -1.088898642700  -0.577957139900
  -0.015154085000   0.023347128300   1.140385459600
* f-type functions
    2    2
          1.08000000
          0.24000000
   1.024526755100   0.239596665400
  -0.090889591000  -1.048236956200
* g-type functions
    1    1
          0.30000000
   1.000000000000

/Mg.ANO-ORCA.Neese.21s15p3d2f1g.9s5p3d2f1g.
F. Neese, E. Valeev. J. Chem. Theory Comput. 7 (2011) 33-43. doi:10.1021/ct100396y
MAGNESIUM (21s,15p,3d,2f,1g) -> [9s,5p,3d,2f,1g]
    12.0   4
* s-type functions
   21    9
    3199100.00000000
     479000.00000000
     109010.00000000
      30878.00000000
      10075.00000000
       3637.90000000
       1419.50000000
        589.35000000
        257.53000000
        117.17000000
         54.76200000
         26.28800000
         12.86000000
          6.26040000
          2.85140000
          1.30580000
          0.58331000
          0.16849000
          0.08564600
          0.04507700
          0.02193400
   0.000001795000   0.000000453700   0.000000087500   0.000000028000   0.000000064700   0.000000107900  -0.000000276100  -0.000000298600  -0.000001054900
   0.000013961900   0.000003525600   0.000000678800   0.000000239500   0.000000437600   0.000001015000  -0.000001373000  -0.000004820300  -0.000001069700
   0.000073412000   0.000018567300   0.000003580800   0.000001094500   0.000002800900   0.000003999300  -0.000013112900  -0.000006349100  -0.000059913700
   0.000310361400   0.000078367100   0.000015079400   0.000005549200   0.000009062100   0.000024370600  -0.000022618900  -0.000132729800   0.000049134300
   0.001129520100   0.000286187000   0.000055229900   0.000016001700   0.000045759500   0.000054637900  -0.000232785900   0.000001287200  -0.001206927600
   0.003682515100   0.000932526900   0.000179363900   0.000069133700   0.000098698800   0.000314943100  -0.000160593600  -0.001932374000   0.001588944200
   0.010905925500   0.002788657100   0.000538857700   0.000145838200   0.000476389300   0.000450735100  -0.002629031100   0.001173317800  -0.015124192400
   0.029592749700   0.007639245900   0.001470130100   0.000599166500   0.000714558500   0.002842426700  -0.000189525000  -0.019555941800   0.023569821400
   0.072189015600   0.019301396700   0.003744297600   0.000915827800   0.003594906100   0.002351299400  -0.021696546000   0.019238572500  -0.138512075100
   0.155264952800   0.043851211600   0.008480677800   0.003745603900   0.003284774100   0.018730823400   0.008940231700  -0.147086076100   0.233826043200
   0.272711082100   0.088010748500   0.017327752600   0.003368677800   0.019188136500   0.003913166600  -0.131714449300   0.190726269000  -0.977379247900
   0.334448771300   0.137273970900   0.027167856700   0.014848841900   0.002278144600   0.083175345500   0.128956822600  -0.829436036600   1.816061268300
   0.219916844100   0.136976362400   0.028652316700  -0.002941899800   0.056698507000  -0.062385042600  -0.530403743000   1.384368037700  -5.340243341500
   0.049677716000  -0.042037932800  -0.010475472600   0.020377160600  -0.077264569700   0.180716063000   0.916423782400  -3.133741731000  10.776611105800
   0.002760157400  -0.372787567300  -0.085713734800  -0.075553169900   0.076659502600  -0.509322470500  -1.595291059800   7.834538495600 -11.814236273100
   0.000814324200  -0.519014763300  -0.168548084500   0.033180305300  -0.392945801200   0.530055958400   4.799512241700  -9.782233395800   8.260127008200
   0.000076099600  -0.211210262100  -0.167989350600  -0.210262284400   0.320841673300  -1.749226274000  -6.424479280700   6.194882111600  -3.876342738200
   0.000023675400  -0.002781788000   0.225842418700   0.801690086200  -2.181487206300   7.895004364700   7.429415364900  -4.226032987300   2.342681625500
  -0.000020601300  -0.001587409200   0.454327383000  -2.134406786600   8.028154575300 -12.335030270100  -8.050474493800   4.235743603100  -2.341380833800
   0.000011019700   0.001425784400   0.390225284700   4.237949348700  -8.922390577600   8.031407120700   4.467772233400  -2.315664561500   1.287741446000
  -0.000002709400  -0.000418862200   0.084847462000  -3.174258123600   3.155274677000  -2.079148972700  -1.096011114700   0.572011488700  -0.320493256200
* p-type functions
   15    5
       4157.80000000
        984.53000000
        320.09000000
        121.73000000
         49.89200000
         22.54200000
         10.74900000
          5.28990000
          2.59960000
          1.25180000
          0.59246000
          0.26941000
          0.12250000
          0.05570000
          0.02530000
   0.000023608600   0.000001416700   0.000003906100   0.000001452000   0.000016304200
   0.000217246800   0.000019291800   0.000015690500   0.000068809300   0.000000900900
   0.001206067200   0.000073556400   0.000196155400   0.000084128600   0.000807662300
   0.005616542600   0.000491881800   0.000432913600   0.001712335100   0.000216836900
   0.020215857700   0.001253175800   0.003264011300   0.001538173900   0.013334076700
   0.056609400400   0.005172932100   0.003918728000   0.018882670300  -0.001467035700
   0.130038527300   0.007551023100   0.023668349400   0.004079682300   0.105018389600
   0.229131731500   0.023691247700   0.008973177800   0.098826555200  -0.061760570400
   0.314520771000   0.012043275800   0.080371931300  -0.050530143400   0.434797891800
   0.305194501200   0.052649942700  -0.045168787600   0.313235779100  -0.567868616900
   0.153594898300  -0.040049677700   0.202092275500  -0.483611231500   1.639013245600
   0.022567141600   0.083172607800  -0.459632670700   1.087040840100  -4.351625997000
   0.001136364800  -0.381744209800   0.724948685500  -3.435539451100   4.688224671000
   0.000259697200   0.358175915800  -2.378445412300   3.541900651800  -2.691510623000
   0.000013766100  -1.115812817000   1.735026422500  -1.324274407700   0.806186700600
* d-type functions
    3    3
          3.36000000
          0.80000000
          0.20000000
   0.021629509300   0.046685930200   1.124885878500
   0.004973818500   1.099898598200  -0.622617807100
   0.996002292000  -0.521838195000   0.191962722600
* f-type functions
    2    2
          1.35000000
          0.30000000
  -0.027962013200   1.051798345700
   1.008342405600  -0.300511609100
* g-type functions
    1    1
          0.35000000
   1.000000000000

/Al.ANO-ORCA.Neese.21s14p5d4f3g2h.9s7p4d3f2g1h.
F. Neese, E. Valeev. J. Chem. Theory Comput. 7 (2011) 33-43. doi:10.1021/ct100396y
ALUMINIUM (21s,14p,5d,4f,3g,2h) -> [9s,7p,4d,3f,2g,1h]
    13.0   5
* s-type functions
   21    9
    3652000.00000000
     546800.00000000
     124500.00000000
      35440.00000000
      11840.00000000
       4434.00000000
       1812.00000000
        791.50000000
        361.00000000
        169.50000000
         81.68000000
         40.28000000
         20.25000000
         10.23000000
          4.80200000
          2.33900000
          1.16300000
          0.58820000
          0.23110000
          0.10270000
          0.04521000
   0.000001863700   0.000000484800   0.000000110700   0.000000149600   0.000000206100  -0.000000336300   0.000000521400   0.000000658100  -0.000001697600
   0.000014463500   0.000003760700   0.000000859100   0.000001173500   0.000001715300  -0.000002263900   0.000003018000   0.000008571500  -0.000007538500
   0.000076182400   0.000019823000   0.000004525500   0.000006087300   0.000008149000  -0.000014580300   0.000023784000   0.000018608500  -0.000082968100
   0.000315823500   0.000082136200   0.000018769400   0.000025777100   0.000038779700  -0.000045553300   0.000054338600   0.000226432600  -0.000101384100
   0.001097387400   0.000285993600   0.000065277300   0.000087199600   0.000111847200  -0.000227489900   0.000394089200   0.000098142800  -0.001479352700
   0.003369709800   0.000878972800   0.000200987800   0.000278364200   0.000437120400  -0.000423190100   0.000390026400   0.003082044400  -0.000060960600
   0.009322188100   0.002449683900   0.000559222300   0.000739521600   0.000887074100  -0.002168009000   0.004027547100  -0.001261407600  -0.016438313700
   0.023799300600   0.006313721800   0.001446383000   0.002025631800   0.003352994900  -0.002462554500   0.001079124100   0.028548243800   0.007317725900
   0.056819321100   0.015494640000   0.003545598800   0.004642236300   0.005170382200  -0.015328086200   0.030288475900  -0.020252695100  -0.140015023900
   0.122468847400   0.034979408000   0.008064417400   0.011443628600   0.020018299800  -0.010818365300  -0.002523950300   0.203647085500   0.039281252800
   0.223897590400   0.070815017000   0.016382725400   0.021158067300   0.020821215400  -0.083237222900   0.177101904000  -0.179467268200  -0.790781418700
   0.313444676900   0.119490376200   0.028246351000   0.041465057100   0.081732839500  -0.006429071700  -0.109845824000   0.998695179200   0.832203883100
   0.274977258500   0.148928589700   0.035920203100   0.043521168800   0.015374354600  -0.292493077000   0.729630863000  -1.173765329600  -2.990076824100
   0.110573391300   0.059093600800   0.015104250700   0.032489143500   0.137609815100   0.314888883100  -1.166342827000   2.074494789800   9.601334065200
   0.011919622900  -0.216754777600  -0.060579708300  -0.119650402400  -0.414141440100  -0.184457559100   1.443153915100  -8.280924422500 -15.374824426200
   0.000636932200  -0.476900609800  -0.150845869700  -0.160003196400   0.214720915700   1.741286333000  -6.180845262300  15.229338793000  16.084235807500
   0.000448769200  -0.376454510500  -0.219775042700  -0.519835132600  -2.092707664900  -1.056811404800  12.698867382900 -15.814676332500 -12.019221214700
  -0.000038012000  -0.087050705200  -0.094573463000   0.166599052400   3.513906053600  -2.945689223600 -12.261255124700   9.874420787700   6.207135667700
   0.000059379100  -0.001255399700   0.400909611400   1.843832139300  -0.839589519500   6.114005079700   8.282510658900  -4.530569653400  -2.492776106300
   0.000058761200   0.002275518400   0.609838548000  -0.837723991200  -2.190684362400  -5.898651784500  -5.240928602300   2.299726355000   1.195622637400
   0.000026145200   0.000597803400   0.181242504900  -0.763734360400   1.837624117200   2.483007468000   1.743733118100  -0.656681965200  -0.330088433700
* p-type functions
   14    7
       2884.00000000
        683.20000000
        222.00000000
         84.82000000
         35.81000000
         16.22000000
          7.70200000
          3.74100000
          1.83100000
          0.88780000
          0.39890000
          0.17180000
          0.07298000
          0.03069000
   0.000063851300   0.000012031600   0.000014284100   0.000023848200   0.000067897900   0.000026957800  -0.000001759700
   0.000563618100   0.000106831000   0.000136056600   0.000194281400   0.000135173000   0.000811230700   0.001723845100
   0.003172096900   0.000599099500   0.000711550200   0.001188011400   0.003373542800   0.001417109000   0.000122986200
   0.013252375000   0.002525584800   0.003216149000   0.004598941100   0.003268487500   0.019844281900   0.042716530200
   0.043383665300   0.008291146100   0.009736024900   0.016333705800   0.049646582700   0.021800111900   0.009712415900
   0.112060310400   0.021895842900   0.027878699300   0.038208944400   0.012544189800   0.206685210200   0.491509356600
   0.218014275700   0.043012654700   0.049871484000   0.094274045500   0.355096518400   0.034009380300  -0.351248293100
   0.311943173600   0.063332760600   0.087715085900   0.111042689100  -0.224537603300   0.736183190100   1.983983826300
   0.316943976100   0.067729835000   0.070712865800   0.190893452700   1.259429001500  -0.924228913600  -5.263225738000
   0.178925132500   0.041705027900   0.157537627100   0.136933213100  -2.809022224800  -1.224199606200   6.278438842700
   0.030990376100  -0.130263600200  -0.480977976900  -1.872253055700   1.694836888700   3.256475494400  -5.040742828600
   0.000120673500  -0.420265513400  -0.834821097000   1.651610711700   0.575244547800  -3.846548409800   3.529345791900
   0.000668944900  -0.449846925300   0.714980598100   0.222042391000  -1.733812520300   3.144515897300  -2.144012620200
  -0.000126314900  -0.154440165800   0.486129239400  -0.823645039100   1.145406990000  -1.441553669700   0.829522763600
* d-type functions
    5    4
          2.21430000
          0.94490000
          0.40320000
          0.17210000
          0.07343000
   0.017809730300   0.008128093200   0.216999592200  -0.481779513200
   0.010402431300  -0.078070882300  -0.361861876800   2.298828032200
   0.259473671800   0.875507330200  -1.139901249100  -2.606473616800
   0.557049316500   0.074055898500   2.081652014100   1.763920266200
   0.306491357200  -0.904595539000  -1.288120578300  -0.725729912700
* f-type functions
    4    3
          0.87560000
          0.44720000
          0.22840000
          0.11670000
  -0.015649957800  -0.073899048500   0.503878387600
   0.290304534100   1.102344285400   0.865937364600
   0.453639207900  -0.170801877400  -2.194056135500
   0.391701193500  -0.775868428000   1.458022640900
* g-type functions
    3    2
          0.69520000
          0.37710000
          0.20460000
   0.079334137800   0.638964537900
   0.562891591200   0.576127763200
   0.441599430800  -1.094021819800
* h-type functions
    2    1
          0.65600000
          0.33000000
   0.312284844500
   0.759509042900

/Si.ANO-ORCA.Neese.21s14p5d4f3g2h.8s7p4d3f2g1h.
F. Neese, E. Valeev. J. Chem. Theory Comput. 7 (2011) 33-43. doi:10.1021/ct100396y
SILICON (21s,14p,5d,4f,3g,2h) -> [8s,7p,4d,3f,2g,1h]
    14.0   5
* s-type functions
   21    8
    4465000.00000000
     668500.00000000
     152200.00000000
      43300.00000000
      14410.00000000
       5394.00000000
       2212.00000000
        968.10000000
        441.20000000
        207.10000000
         99.80000000
         49.24000000
         24.74000000
         12.47000000
          5.79500000
          2.83000000
          1.40700000
          0.69950000
          0.30830000
          0.13850000
          0.06145000
   0.000001747300   0.000000465600   0.000000117400   0.000000154400   0.000000205000  -0.000000345700   0.000000473800   0.000000615700
   0.000013573700   0.000003615400   0.000000911700   0.000001209700   0.000001647300  -0.000002314100   0.000002935300   0.000008028500
   0.000071407400   0.000019035100   0.000004797900   0.000006286800   0.000008247900  -0.000015020600   0.000021152500   0.000017409800
   0.000297258300   0.000079189400   0.000019972500   0.000026618900   0.000036705400  -0.000046553900   0.000055990300   0.000212219800
   0.001038283300   0.000277208300   0.000069866600   0.000091038400   0.000117408700  -0.000237051500   0.000344837600   0.000094525100
   0.003174675400   0.000848109500   0.000214013100   0.000287271400   0.000404067900  -0.000427675000   0.000457310200   0.002905800900
   0.008732495800   0.002350324000   0.000592574000   0.000765629100   0.000961205500  -0.002252476900   0.003412664800  -0.001242491800
   0.022383156000   0.006076974600   0.001536111700   0.002081055900   0.003000517300  -0.002447722900   0.002043599100   0.026716698700
   0.053727738800   0.014987012300   0.003788860500   0.004859342500   0.005951559100  -0.016018330000   0.025165564800  -0.019337941400
   0.116649626600   0.034009064100   0.008652218100   0.011852265100   0.017572944400  -0.010720295900   0.005635276200   0.189323962800
   0.215980190900   0.069532949000   0.017788163000   0.022610664200   0.026791401600  -0.088186496000   0.145869347600  -0.166854419300
   0.309568372200   0.119129203500   0.031089409700   0.043827879500   0.069162579200  -0.008098428900  -0.044362979200   0.969802767800
   0.283949358400   0.153814185000   0.041181703600   0.050488702000   0.050467409500  -0.322036895800   0.598340353000  -1.044601669600
   0.122238608500   0.070555069900   0.019825213800   0.036205068700   0.084472141000   0.338402283800  -0.923880527900   1.832977177600
   0.014187950700  -0.213382841300  -0.066154877700  -0.127092864300  -0.294216400300  -0.166942351700   1.031061065900  -8.110854267500
   0.000286092300  -0.492337285900  -0.180055889000  -0.200125671100  -0.127235734900   1.964636114200  -5.652058742800  15.495748778800
   0.000580965400  -0.379518817700  -0.258650132500  -0.574217932400  -1.598251575900  -1.700468015000  12.728626363800 -16.704282502800
  -0.000136262400  -0.076049563600  -0.063451238300   0.305577965500   3.508804903900  -2.836109079700 -14.138286771800  11.575928527300
   0.000113232400   0.000291889700   0.445814762800   1.798708333900  -1.099202875900   6.617521764700  10.571058613100  -5.991540950900
   0.000058302700   0.002269940700   0.586713522800  -0.874698721500  -2.241280544900  -6.148092227800  -6.162832840900   2.737679154600
   0.000033476000   0.000792093300   0.171335592800  -0.751939794200   1.907113889300   2.529960562000   1.964797734200  -0.735717092900
* p-type functions
   14    7
       3572.00000000
        846.00000000
        274.80000000
        105.00000000
         44.35000000
         20.08000000
          9.53000000
          4.63400000
          2.28000000
          1.11600000
          0.49910000
          0.22540000
          0.10010000
          0.04332000
   0.000059810100   0.000013048900   0.000015740100   0.000030064700   0.000062274700   0.000005523900   0.000013160300
   0.000529019700   0.000115334100   0.000144740100   0.000201963100   0.000298107300   0.000956655500   0.001439970600
   0.002992726400   0.000654562100   0.000790095900   0.001508167000   0.003133572900   0.000404600900   0.000925814300
   0.012620348200   0.002767963800   0.003475308400   0.004886584900   0.007430833400   0.023732324400   0.036666867700
   0.041858500300   0.009281728500   0.011142206400   0.021711878100   0.047205960800   0.007246393600   0.021823275900
   0.110129726700   0.024818160500   0.031094321800   0.041631886300   0.064012869600   0.259064298200   0.435327623700
   0.218574669900   0.050424184700   0.060777674900   0.135924311200   0.318404041300  -0.087741499200  -0.225654978600
   0.317480603400   0.074416893700   0.097845185000   0.094441985200   0.002159093100   1.077111834300   1.640169485700
   0.319330888700   0.081748934100   0.096213876200   0.317748879800   0.813689897100  -1.914437041400  -4.995953183300
   0.171414595900   0.030804350900   0.123953056000  -0.272994295900  -2.789887354300   0.192835917600   6.518099197200
   0.027206191300  -0.178172492500  -0.635775221200  -1.646609724200   2.475164694600   2.420262691700  -5.888928159200
  -0.000324650000  -0.429742808300  -0.660206529400   1.940106673300  -0.319206405000  -3.883605624300   4.618952318100
   0.000825436900  -0.411530218200   0.763210790600  -0.099966987500  -1.298725836600   3.511704430900  -2.877499002200
  -0.000120198300  -0.131675146500   0.437019177200  -0.731844930100   1.043599789700  -1.644495394200   1.090459348200
* d-type functions
    5    4
          3.23860000
          1.37670000
          0.58530000
          0.24880000
          0.10580000
   0.019775136100   0.004732479600   0.182669799900  -0.304530388200
   0.015095467200  -0.096341646300  -0.255674583800   2.103043673900
   0.257236118600   0.870203550800  -1.256846248500  -2.387714424900
   0.556047231500   0.100273984100   2.138057456400   1.575805680400
   0.308114756700  -0.921418941600  -1.291964014100  -0.647614812700
* f-type functions
    4    3
          1.35100000
          0.66000000
          0.32250000
          0.15750000
  -0.013172407300  -0.121714213600   0.231487203200
   0.247459738500   1.042429953000   1.218966661300
   0.529316437700  -0.060819803000  -2.255638692400
   0.356207229600  -0.815114615300   1.422973428000
* g-type functions
    3    2
          0.85280000
          0.46310000
          0.25150000
   0.135939870200   0.772667576400
   0.553030805100   0.336684035400
   0.407774994000  -0.995600088700
* h-type functions
    2    1
          0.85570000
          0.42310000
   0.338685308500
   0.740000133200

/P.ANO-ORCA.Neese.21s14p5d4f3g2h.8s7p4d3f2g1h.
F. Neese, E. Valeev. J. Chem. Theory Comput. 7 (2011) 33-43. doi:10.1021/ct100396y
PHOSPHORUS (21s,14p,5d,4f,3g,2h) -> [8s,7p,4d,3f,2g,1h]
    15.0   5
* s-type functions
   21    8
    5384000.00000000
     806200.00000000
     183600.00000000
      52250.00000000
      17390.00000000
       6523.00000000
       2687.00000000
       1178.00000000
        536.20000000
        251.50000000
        121.30000000
         59.88000000
         30.05000000
         15.12000000
          7.01000000
          3.44100000
          1.71200000
          0.83370000
          0.39120000
          0.17770000
          0.07939000
   0.000001645700   0.000000446900   0.000000123300   0.000000152600   0.000000201700  -0.000000348700   0.000000451600   0.000000575200
   0.000012781500   0.000003469500   0.000000957000   0.000001194600   0.000001590100  -0.000002324800   0.000002876500   0.000007818500
   0.000067206500   0.000018256900   0.000005035600   0.000006211400   0.000008182200  -0.000015163100   0.000019955700   0.000015477600
   0.000279710900   0.000075938600   0.000020948900   0.000026258800   0.000035077900  -0.000046607100   0.000055928400   0.000208744800
   0.000976699800   0.000265723600   0.000073294800   0.000089931500   0.000117913900  -0.000239763800   0.000321858100   0.000059554600
   0.002968349200   0.000808045300   0.000222987100   0.000281455000   0.000378250500  -0.000421072000   0.000472220900   0.002887922400
   0.008123997700   0.002227328300   0.000614700400   0.000748131000   0.000974014800  -0.002262794500   0.003116763300  -0.001641737500
   0.020920010600   0.005783319900   0.001598274800   0.002034873500   0.002756081100  -0.002396611800   0.002374748500   0.026521384500
   0.050559032800   0.014343781200   0.003969916500   0.004801856000   0.006225105300  -0.016176874400   0.022823197700  -0.021824105600
   0.110479103300   0.032706058400   0.009093710400   0.011702522200   0.016032810200  -0.010573928700   0.008829926300   0.188663034900
   0.206956912300   0.067371526600   0.018870140500   0.022672368300   0.029386534800  -0.089997754900   0.132411425400  -0.179473565200
   0.304737341400   0.117647137100   0.033515916700   0.044341748000   0.062418367600  -0.010575969300  -0.015600627700   0.992374646000
   0.292952310600   0.157279811800   0.046147111900   0.054282419500   0.069486214700  -0.339579731400   0.550780962200  -1.056350706300
   0.135560711600   0.083854175200   0.025607583600   0.041347145500   0.062398268600   0.339514987800  -0.818368776200   1.895871537700
   0.017320781600  -0.199717185400  -0.067339574900  -0.127458697900  -0.222276308800  -0.152810172600   0.838970015400  -8.334120037400
  -0.000035169800  -0.498603033600  -0.203809441400  -0.216143117400  -0.327768605000   2.075486498000  -5.380515096700  15.898493755900
   0.000803262000  -0.389817123100  -0.288303275200  -0.595219793500  -1.265996152000  -1.974035003000  12.560073118300 -17.164044619200
  -0.000243839500  -0.074342581000  -0.040736170500   0.371262375000   3.358039758300  -2.926378765100 -15.215552980200  12.632844472300
   0.000098722000  -0.000736775200   0.471307688700   1.727205591000  -1.019395610500   7.050196579800  12.136686002000  -7.101340326200
  -0.000051227900  -0.000926189400   0.565966007100  -0.807508989900  -2.460723721900  -6.349057217700  -6.756983068200   3.079806665000
   0.000010091100   0.000000000000   0.170269360500  -0.802768702000   1.999649627400   2.547777100300   2.087522345000  -0.798532426100
* p-type functions
   14    7
       4552.00000000
       1078.00000000
        350.10000000
        133.80000000
         56.52000000
         25.58000000
         12.14000000
          5.90200000
          2.91000000
          1.43500000
          0.65700000
          0.30050000
          0.13400000
          0.05783000
   0.000051953000   0.000012505300   0.000015575500   0.000029952900   0.000056166300  -0.000002853600   0.000016323900
   0.000460402400   0.000110641500   0.000142293500   0.000199674200   0.000308234000   0.000910625400   0.001337894000
   0.002620816400   0.000632449500   0.000788608800   0.001514864500   0.002851734900   0.000007163300   0.001139469400
   0.011187244100   0.002705134000   0.003483589100   0.004956775100   0.007882719600   0.022838633800   0.034897688700
   0.037822897400   0.009256458600   0.011531376800   0.022618820400   0.044392900300   0.002351648600   0.027108402700
   0.102116397500   0.025400633500   0.032740015600   0.045227827900   0.076474634700   0.258450758700   0.431642935100
   0.210313745300   0.053762878600   0.067638762300   0.149569116000   0.308733484900  -0.099522169900  -0.143021077500
   0.317382379700   0.082594528100   0.110002175500   0.116058996500   0.082894250900   1.116894045800   1.452357978400
   0.327164036500   0.092622309500   0.111837995600   0.329017516100   0.664137364300  -2.073416060100  -4.912251480000
   0.177686982000   0.030911625600   0.108244664400  -0.392408581100  -2.805780769300   0.425154131800   6.767655296400
   0.029358821800  -0.193095244700  -0.688491510300  -1.531593717300   2.746897488800   2.342001891400  -6.266639733900
  -0.000075228300  -0.436362552000  -0.589511984600   1.963392073800  -0.591265730000  -3.943821354900   4.841580551400
   0.000679589100  -0.400880059200   0.774697718900  -0.168662440800  -1.158281004200   3.580079774700  -2.946650135400
  -0.000125946100  -0.122049292500   0.412884245400  -0.713412187600   1.009771830700  -1.675956779100   1.098124142800
* d-type functions
    5    4
          4.30080000
          1.83460000
          0.78260000
          0.33390000
          0.14240000
   0.021263641800  -0.001012657400   0.166264384100  -0.222393134600
   0.018805067800  -0.103476132500  -0.262811028100   2.020264222100
   0.264797629500   0.891446808100  -1.240554536200  -2.357834598000
   0.553510347200   0.069403462400   2.143029552000   1.582569718900
   0.300434000100  -0.913145622100  -1.299271530300  -0.664312968500
* f-type functions
    4    3
          1.81600000
          0.88060000
          0.42700000
          0.20700000
  -0.012604306300  -0.129302821500   0.168258723500
   0.245954439600   1.037554379100   1.290845922800
   0.549126284600  -0.062623288000  -2.276444988400
   0.336333480500  -0.817258001900   1.429023290500
* g-type functions
    3    2
          1.06160000
          0.57910000
          0.31590000
   0.165214600600   0.845168264700
   0.553666422800   0.202659522800
   0.381482408400  -0.943521321800
* h-type functions
    2    1
          1.08500000
          0.52770000
   0.363763883200
   0.721451950000

/S.ANO-ORCA.Neese.21s14p5d4f3g2h.8s7p4d3f2g1h.
F. Neese, E. Valeev. J. Chem. Theory Comput. 7 (2011) 33-43. doi:10.1021/ct100396y
SULFUR (21s,14p,5d,4f,3g,2h) -> [8s,7p,4d,3f,2g,1h]
    16.0   5
* s-type functions
   21    8
    6297000.00000000
     943100.00000000
     214900.00000000
      61250.00000000
      20450.00000000
       7719.00000000
       3198.00000000
       1402.00000000
        637.20000000
        298.90000000
        144.30000000
         71.21000000
         35.73000000
         17.97000000
          8.34100000
          4.11200000
          2.04500000
          0.97700000
          0.47660000
          0.21850000
          0.09759000
   0.000001592100   0.000000438200   0.000000135000   0.000000151500   0.000000217500  -0.000000353700   0.000000423900   0.000000556500
   0.000012359900   0.000003400100   0.000001047300   0.000001186400   0.000001701400  -0.000002218600   0.000002953300   0.000007646900
   0.000064915900   0.000017870700   0.000005505400   0.000006155400   0.000008836500  -0.000015689700   0.000018098200   0.000014708200
   0.000269332600   0.000074104100   0.000022825800   0.000025976600   0.000037240800  -0.000042399100   0.000060569300   0.000204443800
   0.000934603400   0.000257663900   0.000079389700   0.000088230300   0.000126734500  -0.000253028500   0.000278211100   0.000043579900
   0.002808149300   0.000774651600   0.000238649600   0.000273765800   0.000392329400  -0.000337733000   0.000566583900   0.002813041000
   0.007673627800   0.002131295400   0.000657099800   0.000723791000   0.001041014100  -0.002432768100   0.002525364100  -0.001728626100
   0.019888718200   0.005568921100   0.001717583700   0.001988368300   0.002851213800  -0.001629561500   0.003596962200   0.025623804200
   0.048256162900   0.013853715800   0.004282697000   0.004688489700   0.006767920400  -0.017822135100   0.017956871400  -0.021703681500
   0.105750417500   0.031645311100   0.009811825800   0.011496396200   0.016572528900  -0.004984399400   0.018673274000   0.182693850100
   0.200209678700   0.065671400900   0.020525389300   0.022335490200   0.032673674500  -0.102106708200   0.101415090400  -0.175946670600
   0.300704755700   0.116366754100   0.036871901000   0.044562277000   0.065135765400   0.018656772500   0.049754960900   0.974387963800
   0.298654878700   0.159128876100   0.051972788600   0.055685799700   0.085006362100  -0.409962959100   0.409264909000  -1.015616641700
   0.146326707500   0.094128522000   0.031804949500   0.046556927500   0.062478633800   0.457841743300  -0.527369619500   1.921253491200
   0.020159720200  -0.186945574700  -0.069298499700  -0.126255520700  -0.234497907200  -0.462851346000   0.269155908500  -8.497672561300
  -0.000102704800  -0.501734920000  -0.229930204000  -0.217545258700  -0.409053361200   2.904691062600  -4.412737980000  16.155172300200
   0.001101090700  -0.395479956400  -0.316948204900  -0.628301634100  -1.252810084600  -3.507981192000  11.498981641300 -17.470508323100
  -0.000310142600  -0.073255899300  -0.015974915000   0.424188657500   3.938687240800  -1.295882998700 -15.451380149400  13.651724019200
  -0.000174322800  -0.006160033800   0.495799806800   1.745051216900  -1.963431630900   6.102874252500  13.355598256400  -8.381166806900
  -0.000419145700  -0.008641940400   0.550219898200  -0.897041428700  -1.835594772100  -6.064227060200  -7.499586707400   3.672281169000
  -0.000091251800  -0.002101109900   0.158102388100  -0.768350182200   1.782765129400   2.537350202400   2.340498362900  -0.968724861700
* p-type functions
   14    7
       5266.00000000
       1247.00000000
        405.00000000
        154.80000000
         65.38000000
         29.59000000
         14.04000000
          6.82400000
          3.36900000
          1.66600000
          0.76810000
          0.35040000
          0.15560000
          0.06681000
   0.000052261300   0.000013450100   0.000015465200   0.000026126500   0.000047286500   0.000026733400  -0.000012269300
   0.000463522300   0.000118880900   0.000140879100   0.000183114200   0.000230059400   0.000612105200   0.001540692100
   0.002640985700   0.000681566000   0.000784589200   0.001323751800   0.002396223200   0.001437165900  -0.000294872600
   0.011316862100   0.002922241100   0.003467501700   0.004559603400   0.005893519000   0.015468605300   0.039424489800
   0.038470242900   0.010082237600   0.011609908500   0.019928709500   0.037098560500   0.023810029600   0.002451943600
   0.104338980200   0.027781934100   0.033120603500   0.042838883500   0.056064248900   0.171480490800   0.481277688000
   0.215682940600   0.059300457600   0.069308383100   0.131020473000   0.268212036100   0.118794698000  -0.271899023000
   0.325258367000   0.091125078200   0.110584667700   0.114102100400   0.038098911100   0.582250055100   1.906281556600
   0.326179694600   0.100494728900   0.108493300100   0.282487281600   0.618193831700  -0.656752578700  -5.619584863400
   0.163147291700   0.012255969800   0.077324692800  -0.361975733400  -2.064506153300  -1.805411016000   7.196794912100
   0.023896819700  -0.237663445300  -0.701546916200  -1.292248610300   1.106265037600   4.324516585400  -6.040736670800
   0.000474148300  -0.437452406100  -0.472302902900   1.437162967600   1.308846804300  -4.858756669700   4.099119663600
   0.000736633300  -0.365271349800   0.691338286100   0.400730908400  -2.427230552400   3.504484651300  -2.161210679200
   0.000019857000  -0.113754627400   0.465832381000  -1.001497217000   1.429166942500  -1.389562248100   0.699589270500
* d-type functions
    5    4
          5.07550000
          2.18330000
          0.93920000
          0.40400000
          0.17380000
   0.025145013800  -0.003421983300   0.181566738700  -0.268270635700
   0.024735305300  -0.068507601600  -0.364785436000   2.096527598000
   0.292276387200   0.901076877200  -1.105500098700  -2.532945117800
   0.546121626200  -0.011851704300   2.107150366100   1.750101907400
   0.274586046100  -0.884972740800  -1.320086070800  -0.737974934700
* f-type functions
    4    3
          1.32220000
          0.73190000
          0.40510000
          0.22430000
   0.074838427300   0.303348968100   1.223200068900
   0.416550600000   0.826774025000  -0.537804723400
   0.345168543100  -0.398118244800  -1.440602030600
   0.300279115300  -0.698029614700   1.376540554900
* g-type functions
    3    2
          1.34730000
          0.70090000
          0.36470000
   0.145457199500   0.675849718400
   0.530933970300   0.444290843700
   0.437043092700  -1.013622331300
* h-type functions
    2    1
          1.28610000
          0.61150000
   0.351230356800
   0.736868012400

/Cl.ANO-ORCA.Neese.20s12p4d3f2g1h.9s7p4d3f2g1h.
F. Neese, E. Valeev. J. Chem. Theory Comput. 7 (2011) 33-43. doi:10.1021/ct100396y
CHLORINE (20s,12p,4d,3f,2g,1h) -> [9s,7p,4d,3f,2g,1h]
    17.0   5
* s-type functions
   20    9
    6410000.00000000
     959600.00000000
     218300.00000000
      61810.00000000
      20140.00000000
       7264.00000000
       2832.00000000
       1175.00000000
        512.60000000
        233.00000000
        109.50000000
         52.86000000
         25.84000000
         12.17000000
          6.03000000
          3.01200000
          1.51100000
          0.66040000
          0.29260000
          0.12540000
   0.000001813400   0.000000531400   0.000000003000   0.000000169800  -0.000000245400   0.000000260000  -0.000000287200  -0.000001158800   0.000000266000
   0.000014111100   0.000004135600   0.000000024200   0.000001302000  -0.000001703800   0.000002494900  -0.000004675900   0.000001195400  -0.000022211500
   0.000074236900   0.000021754100   0.000000122700   0.000006996000  -0.000010533300   0.000009539400  -0.000006034700  -0.000071458000   0.000068162200
   0.000314115200   0.000092109900   0.000000544400   0.000028803600  -0.000035846400   0.000060369200  -0.000129000900   0.000130679400  -0.000742463500
   0.001146362300   0.000336357500   0.000001861500   0.000108950000  -0.000171046400   0.000128962300   0.000002859100  -0.001508299400   0.002012784600
   0.003738690900   0.001100469400   0.000006491500   0.000341548300  -0.000399562600   0.000787820200  -0.001884699100   0.002991880100  -0.012281845600
   0.011094077700   0.003284858800   0.000017166600   0.001074042000  -0.001768983900   0.001043525200   0.001158678900  -0.019503669600   0.030938398800
   0.030113599700   0.009057380900   0.000049612400   0.002789259100  -0.002999050900   0.007195611800  -0.019140428900   0.039419223400  -0.136461344000
   0.073910522600   0.022942846600   0.000090684500   0.007625123400  -0.013361042000   0.005319641200   0.018761035100  -0.182070433600   0.323567446900
   0.158249381400   0.052580145300   0.000167295600   0.016101485900  -0.014923065700   0.048820971800  -0.146260705800   0.364781793500  -1.105429619100
   0.274735095100   0.104288358800  -0.000152020100   0.036253378900  -0.071420793400   0.006685940600   0.186694006500  -1.271566614000   2.485032717800
   0.334036462400   0.165462254100  -0.001187014000   0.050471750700  -0.023817230900   0.227480894700  -0.823811905800   2.380759882700  -7.991613822200
   0.217559780100   0.154021839200  -0.003570299400   0.066737185400  -0.206192769200  -0.168264603300   1.324921105500  -6.279216808500  15.307319055000
   0.045743115500  -0.073840314300   0.004458775200  -0.061718578100   0.357897053200   0.491734612700  -3.445011151000  14.734902708200 -17.982557389100
  -0.000029339100  -0.464015406000   0.042304900900  -0.124932458300  -0.357728043200  -1.689721825300  10.641628981000 -20.181179615100  15.378575197800
   0.001835027500  -0.567479308500   0.172928717800  -0.604647456200   2.692470125300  -0.719667619800 -17.279431419100  17.596875942600 -10.168337058400
  -0.000444532700  -0.190508561600   0.079912155100  -0.178307776000  -3.954096944000   5.857770628000  15.562566359200 -10.523016848000   5.277788634700
  -0.000077668400   0.123140435800  -0.430562796700   2.189040895000   0.626233178800  -8.274059108900  -9.673634637800   4.835075056000  -2.240829141800
  -0.000458712400   0.181415143600  -0.580076876000  -0.854423150600   2.584359968200   6.568525188600   5.009531469100  -2.098179662900   0.931723101400
  -0.000094059500   0.057288824500  -0.183332217000  -0.825303522700  -1.904479889400  -2.527139303400  -1.480720774900   0.555111506000  -0.238611427800
* p-type functions
   12    7
       2548.00000000
        603.70000000
        195.60000000
         74.15000000
         30.94000000
         13.69000000
          6.22900000
          2.87800000
          1.28200000
          0.56410000
          0.23480000
          0.09312000
   0.000235701700   0.000063949900   0.000079262800   0.000107726600   0.000219774000   0.000356099200  -0.000149973700
   0.002051579900   0.000556986200   0.000742637900   0.001027225000   0.000781843300   0.001284946600   0.009461748200
   0.011154333100   0.003047486900   0.003782554900   0.005164525500   0.010638300500   0.017399424600  -0.006406387000
   0.043981597200   0.012147078500   0.016331227800   0.022884069900   0.017235841900   0.030088939700   0.231066953100
   0.129994232000   0.036875742500   0.046094407400   0.065149525300   0.149768722100   0.264883669900   0.014801943900
   0.272959183200   0.079634699200   0.111998718300   0.162079214500   0.078190727200   0.117887303500   1.998091182800
   0.383690452000   0.117986470500   0.129275347000   0.160873768100   0.618788466800   1.085070326700  -4.799287499900
   0.291869453300   0.087143223500   0.172551149000   0.285444808700  -0.977008607800  -3.755092412400   5.157929808100
   0.070446127800  -0.142101281900  -0.462888418700  -1.725699359600  -0.855252871200   4.851484491200  -3.710080317900
   0.001286777000  -0.427685723300  -0.798744967100   1.133707024600   2.735465362300  -3.987101743300   2.146213115700
   0.001829671100  -0.443417262000   0.641053119800   0.741597630900  -2.828949251700   2.363982784500  -0.996469333400
   0.000016352700  -0.162396124000   0.532811060900  -1.047510671500   1.421042153100  -0.875990124900   0.310101200300
* d-type functions
    4    4
          0.25000000
          0.61800000
          1.52900000
          3.78100000
   0.372890783200  -1.038787041000   1.120022496100  -0.419885646700
   0.573676910600   0.442872367800  -2.061979541300   1.034551604000
   0.171976094400   0.654921271500   1.555839610500  -1.722097007600
   0.037118057400  -0.089537715400  -0.091962411000   1.621513173300
* f-type functions
    3    3
          0.32000000
          0.65600000
          1.34500000
   0.330473066000  -0.914113303100   1.486796421200
   0.538809828900   0.114035162100  -2.474982026100
   0.256779381600   0.827056782100   1.550635231400
* g-type functions
    2    2
          0.55600000
          1.30200000
   0.698589106200  -1.060940525800
   0.404403839900   1.204192290600
* h-type functions
    1    1
          1.05300000
   1.000000000000

/Ar.ANO-ORCA.Neese.21s14p5d4f3g2h.8s7p4d3f2g1h.
F. Neese, E. Valeev. J. Chem. Theory Comput. 7 (2011) 33-43. doi:10.1021/ct100396y
ARGON (21s,14p,5d,4f,3g,2h) -> [8s,7p,4d,3f,2g,1h]
    18.0   5
* s-type functions
   21    8
    9149000.00000000
    1370000.00000000
     311900.00000000
      88650.00000000
      29330.00000000
      10930.00000000
       4480.00000000
       1962.00000000
        894.10000000
        419.60000000
        202.30000000
         99.84000000
         50.07000000
         25.14000000
         11.81000000
          5.88200000
          2.93900000
          1.40500000
          0.69630000
          0.31880000
          0.14100000
   0.000001342700   0.000000381300   0.000000119600  -0.000000136700   0.000000202700  -0.000000329300   0.000000345200   0.000000456100
   0.000010438600   0.000002963300   0.000000929500  -0.000001074000   0.000001591700  -0.000001887700   0.000002605800   0.000006970200
   0.000054856700   0.000015580300   0.000004888400  -0.000005556500   0.000008245400  -0.000015057100   0.000014290400   0.000010483000
   0.000229582800   0.000065188000   0.000020445500  -0.000023756500   0.000035196000  -0.000034167400   0.000056490500   0.000190932700
   0.000810333800   0.000230432200   0.000072315000  -0.000081626100   0.000121200400  -0.000255002900   0.000215191800  -0.000008843000
   0.002485341300   0.000707458600   0.000221909700  -0.000260209600   0.000385346100  -0.000240914100   0.000599086500   0.002740861400
   0.006836917300   0.001957296300   0.000614754500  -0.000686131100   0.001020262500  -0.002614593000   0.001886604700  -0.002314885500
   0.017619881500   0.005085622500   0.001597098400  -0.001895039900   0.002807668600  -0.000564530800   0.004207826700   0.025912589400
   0.042875171800   0.012652835000   0.003986533400  -0.004407749400   0.006579098100  -0.019685787300   0.012771512600  -0.027492575300
   0.095485287200   0.029306451300   0.009257779200  -0.011123181500   0.016565128500   0.002465030800   0.024547632800   0.185863007400
   0.185064004300   0.061771218600   0.019706876900  -0.021581266800   0.032656665600  -0.117149534500   0.070381544600  -0.208427508300
   0.289041536800   0.112540721400   0.036410686600  -0.045089063800   0.068293503100   0.056727906900   0.098018858600   1.033353340400
   0.310165596500   0.162293160200   0.054360046200  -0.058206937300   0.093185067700  -0.508545923800   0.287867475000  -1.123424371600
   0.172183219400   0.118411975700   0.041210140000  -0.060765811900   0.089290567400   0.607558318500  -0.220149997900   2.395179045800
   0.028522717900  -0.146147511900  -0.055719859600   0.116719218800  -0.251036339500  -0.904075790600  -0.127586971700  -9.520649898100
  -0.000575738100  -0.497751504900  -0.238979099100   0.203465011900  -0.389771465200   3.934871830100  -4.055523779000  17.319433958300
   0.001181215000  -0.434239642900  -0.348066057200   0.721530022600  -1.512181519400  -4.993033127600  11.288936447600 -18.357622903200
  -0.000480534900  -0.089074510400  -0.011404678400  -0.438597272100   4.589828593800   0.252906190400 -15.766204889700  14.478422430900
   0.000188849400  -0.000538050000   0.508891466600  -1.844905727900  -2.728906402800   4.946876359200  13.954013072000  -9.048892041600
  -0.000097250900  -0.002040360300   0.548407888100   1.020264608300  -1.324807664800  -5.508146923100  -7.870011670500   3.959997051000
   0.000017432700   0.000028017600   0.156444137300   0.709466694900   1.594092216600   2.408169807800   2.493082860400  -1.060962397300
* p-type functions
   14    7
       7050.00000000
       1669.00000000
        542.10000000
        207.10000000
         87.52000000
         39.61000000
         18.78000000
          9.13000000
          4.51600000
          2.24500000
          1.06500000
          0.48850000
          0.21660000
          0.09255000
   0.000050184300   0.000014116300   0.000018126900   0.000034362600   0.000043156200  -0.000016831200   0.000054635500
   0.000445365000   0.000124932700   0.000160467400   0.000203057600   0.000391553400   0.001046823900   0.000804317300
   0.002547997300   0.000718915000   0.000924138300   0.001746418500   0.002227254800  -0.000656625200   0.002963766900
   0.011015523700   0.003113482100   0.004009477300   0.005178871700   0.010062156800   0.026399992000   0.021767537500
   0.037848976400   0.010861471200   0.014024732000   0.027026279000   0.035819828400  -0.007402864400   0.054657420300
   0.104355193300   0.030521310200   0.039664457400   0.050769353000   0.110368312000   0.313620442200   0.310273976200
   0.219335150700   0.066408747200   0.088380435200   0.193375639900   0.254334473900  -0.165450334900   0.158894807300
   0.334615306700   0.104335519600   0.132531330400   0.101572650900   0.244397389700   1.400168306200   0.724211812600
   0.326771019800   0.110481226500   0.141996113500   0.435592857500   0.235845791800  -3.208647195900  -4.024311310300
   0.148153014700  -0.013289622600  -0.001518774200  -0.985508099100  -2.752161454600   2.380765324800   6.525236394800
   0.019258615000  -0.278221541400  -0.879227120300  -0.843210270200   3.639941168700   0.393468550200  -6.638342865700
   0.000551936800  -0.434865573900  -0.213830609800   2.021268936900  -1.833086472800  -2.600906903100   5.374438146400
   0.000176924600  -0.337575208200   0.784225468200  -0.668903865900  -0.338432796200   3.008562906700  -3.493522266100
  -0.000016855500  -0.095233886400   0.286621341800  -0.477495424100   0.794834995900  -1.603684250600   1.400051468700
* d-type functions
    5    4
          7.63270000
          3.28760000
          1.41600000
          0.60990000
          0.26270000
   0.027905781200  -0.003289255000   0.167681033800  -0.305715996300
   0.029368371300  -0.070191250000  -0.354437383200   2.142513822500
   0.303094373100   0.923579371400  -1.097199332300  -2.575625546600
   0.542279926800  -0.061617628500   2.117474378600   1.779013313300
   0.264001540600  -0.864872078700  -1.337882909700  -0.753639925000
* f-type functions
    4    3
          3.05820000
          1.52920000
          0.76470000
          0.38240000
  -0.010600845100  -0.065093160800   0.195142522600
   0.304583458600   1.031717674400   1.295648313900
   0.542344318500  -0.162623811100  -2.427585135000
   0.277175008200  -0.809009816400   1.551585736300
* g-type functions
    3    2
          1.84500000
          0.96570000
          0.50550000
   0.202952051200   0.813039415200
   0.529978175100   0.191802391100
   0.389167458100  -0.914756830800
* h-type functions
    2    1
          1.87430000
          0.88710000
   0.355693701700
   0.733957871800
