************************************************************************
* This file is part of OpenMolcas.                                     *
*                                                                      *
* OpenMolcas is free software; you can redistribute it and/or modify   *
* it under the terms of the GNU Lesser General Public License, v. 2.1. *
* OpenMolcas is distributed in the hope that it will be useful, but it *
* is provided "as is" and without any express or implied warranties.   *
* For more details see the full text of the license in the file        *
* LICENSE or in <http://www.gnu.org/licenses/>.                        *
************************************************************************
/X.ANO-DK3..0s.0s.
Dummy Basis Set
for dummy element
Options
OrbitalEnergies
EndOptions
 0.0 0
0 0
0
/H.ANO-DK3.Tsuchiya.6s.1s.
Takashi Tsuchiya, Minori Abe, Takahito Nakajima and Kimihoko Hirao,
J. Chem. Phys., 115, 4463 (2001)
******************************************************************************
*                                                                            *
* HYDROGEN: H                                                                *
* ===========                                                                *
*   Reference state:                                                         *
*        The atomic ground state, H(2S)                                      *
*   Relativistic effect:                                                     *
*        The scalar relativistic third-order Douglas-Kroll(DK3) method       *
*   Primitive functions:                                                     *
*        Optimized by the total energy minimization in DK3-SCF               *
*   Contraction:                                                             *
*        Taken from the DK3-SCF orbital coefficients                         *
*                                                                            *
******************************************************************************
Options
FockOperator
EndOptions
   1.000000            0
* S-type functions
    6    1
 8.2932759D+01 1.2452437D+01 2.8330596D+00 8.0001038D-01 2.5859498D-01
 8.9969184D-02
  0.0020043
  0.0152888
  0.0753169
  0.2563345
  0.4976187
  0.2967561
    1
   -0.499952
*
******************************************************************************
/He.ANO-DK3.Tsuchiya.6s.1s.
Takashi Tsuchiya, Minori Abe, Takahito Nakajima and Kimihoko Hirao,
J. Chem. Phys., 115, 4463 (2001)
******************************************************************************
*                                                                            *
* HELIUM: He                                                                 *
* ==========                                                                 *
*   Reference state:                                                         *
*        The atomic ground state, He(1S)                                     *
*   Relativistic effect:                                                     *
*        The scalar relativistic third-order Douglas-Kroll(DK3) method       *
*   Primitive functions:                                                     *
*        Optimized by the total energy minimization in DK3-SCF               *
*   Contraction:                                                             *
*        Taken from the DK3-SCF orbital coefficients                         *
*                                                                            *
******************************************************************************
Options
FockOperator
EndOptions
   2.000000            0
* S-type functions
    6    1
 2.3423121D+02 3.5178392D+01 7.9910313D+00 2.2124420D+00 6.6706612D-01
 2.0894799D-01
  0.0026101
  0.0195509
  0.0910179
  0.2720138
  0.4780090
  0.3078198
    1
   -0.917636
*
******************************************************************************
/Li.ANO-DK3.Tsuchiya.12s.2s.
Takashi Tsuchiya, Minori Abe, Takahito Nakajima and Kimihoko Hirao,
J. Chem. Phys., 115, 4463 (2001)
******************************************************************************
*                                                                            *
* LITHIUM: Li                                                                *
* ===========                                                                *
*   Reference state:                                                         *
*        The atomic ground state, Li(2S)                                     *
*   Relativistic effect:                                                     *
*        The scalar relativistic third-order Douglas-Kroll(DK3) method       *
*   Primitive functions:                                                     *
*        Optimized by the total energy minimization in DK3-SCF               *
*   Contraction:                                                             *
*        Taken from the DK3-SCF orbital coefficients                         *
*                                                                            *
******************************************************************************
Options
FockOperator
EndOptions
   3.000000            0
* S-type functions
   12    2
 7.2374275D+03 1.0797167D+03 2.4550191D+02 6.9535877D+01 2.2661995D+01
 8.1311063D+00 3.1001323D+00 1.2283838D+00 4.9395016D-01 9.3077167D-02
 4.5958947D-02 2.1498396D-02
  0.0001294 -0.0000202
  0.0008446 -0.0001320
  0.0043113 -0.0006759
  0.0176301 -0.0027740
  0.0592836 -0.0094992
  0.1587099 -0.0263036
  0.3159007 -0.0572085
  0.4011539 -0.0951622
  0.1992589 -0.1215708
  0.0096482  0.3011788
 -0.0052404  0.5511039
  0.0017083  0.2512361
    2
   -2.477773    0.002015
    0.002015   -0.196323
*
******************************************************************************
/Be.ANO-DK3.Tsuchiya.12s.2s.
Takashi Tsuchiya, Minori Abe, Takahito Nakajima and Kimihoko Hirao,
J. Chem. Phys., 115, 4463 (2001)
******************************************************************************
*                                                                            *
* BERYLLIUM: Be                                                              *
* =============                                                              *
*   Reference state:                                                         *
*        The atomic ground state, Be(1S)                                     *
*   Relativistic effect:                                                     *
*        The scalar relativistic third-order Douglas-Kroll(DK3) method       *
*   Primitive functions:                                                     *
*        Optimized by the total energy minimization in DK3-SCF               *
*   Contraction:                                                             *
*        Taken from the DK3-SCF orbital coefficients                         *
*                                                                            *
******************************************************************************
Options
FockOperator
EndOptions
   4.000000            0
* S-type functions
   12    2
 1.4682369D+04 2.1819292D+03 4.9572119D+02 1.4041641D+02 4.5765949D+01
 1.6453927D+01 6.3169932D+00 2.5345931D+00 1.0353655D+00 2.5279254D-01
 1.0516439D-01 4.2606883D-02
  0.0001303 -0.0000237
  0.0007660 -0.0001401
  0.0038229 -0.0006959
  0.0156043 -0.0028835
  0.0530626 -0.0098524
  0.1457940 -0.0286399
  0.3026836 -0.0637870
  0.4046899 -0.1171951
  0.2222588 -0.1210940
  0.0129795  0.2535158
 -0.0046937  0.5818290
  0.0012437  0.2916449
    2
   -4.733181    0.000000
    0.000000   -0.309306
*
******************************************************************************
/B.ANO-DK3.Tsuchiya.12s8p.2s1p.
Takashi Tsuchiya, Minori Abe, Takahito Nakajima and Kimihoko Hirao,
J. Chem. Phys., 115, 4463 (2001)
******************************************************************************
*                                                                            *
* BORON: B                                                                   *
* ========                                                                   *
*   Reference state:                                                         *
*        The atomic ground state, B(2P)                                      *
*   Relativistic effect:                                                     *
*        The scalar relativistic third-order Douglas-Kroll(DK3) method       *
*   Primitive functions:                                                     *
*        Optimized by the total energy minimization in DK3-SCF               *
*   Contraction:                                                             *
*        Taken from the DK3-SCF orbital coefficients                         *
*                                                                            *
******************************************************************************
Options
FockOperator
EndOptions
   5.000000            1
* S-type functions
   12    2
 1.3480560D+06 1.2257850D+04 1.8066410D+03 4.0647600D+02 1.1399080D+02
 3.6850240D+01 1.3110910D+01 4.9649870D+00 1.9365210D+00 5.0377510D-01
 2.0607320D-01 7.8884860D-02
  0.0000090 -0.0000018
  0.0002792 -0.0000565
  0.0017150 -0.0003464
  0.0086796 -0.0017674
  0.0351532 -0.0072045
  0.1132335 -0.0242221
  0.2730690 -0.0627779
  0.4259671 -0.1269257
  0.2803800 -0.1458062
  0.0232095  0.2137488
 -0.0065852  0.5870210
  0.0017840  0.3344241
    2
   -7.696893    0.000000
    0.000000   -0.494882
* P-type functions
    8    1
 1.0414650D+04 3.4853960D+01 8.1604000D+00 2.4504900D+00 8.4564540D-01
 3.1535330D-01 1.1731410D-01 4.3559860D-02
  0.0000010
  0.0024720
  0.0169461
  0.0720362
  0.2133820
  0.4032403
  0.4175701
  0.1106621
    1
   -0.309666
*
******************************************************************************
/C.ANO-DK3.Tsuchiya.12s8p.2s1p.
Takashi Tsuchiya, Minori Abe, Takahito Nakajima and Kimihoko Hirao,
J. Chem. Phys., 115, 4463 (2001)
******************************************************************************
*                                                                            *
* CARBON: C                                                                  *
* =========                                                                  *
*   Reference state:                                                         *
*        The atomic ground state, C(3P)                                      *
*   Relativistic effect:                                                     *
*        The scalar relativistic third-order Douglas-Kroll(DK3) method       *
*   Primitive functions:                                                     *
*        Optimized by the total energy minimization in DK3-SCF               *
*   Contraction:                                                             *
*        Taken from the DK3-SCF orbital coefficients                         *
*                                                                            *
******************************************************************************
Options
FockOperator
EndOptions
   6.000000            1
* S-type functions
   12    2
 4.5124820D+04 6.1961920D+03 1.3782820D+03 3.8407490D+02 1.2253810D+02
 4.3028190D+01 1.6267920D+01 6.4817410D+00 2.6444920D+00 7.3803660D-01
 2.9059560D-01 1.1263710D-01
  0.0001294 -0.0000276
  0.0006718 -0.0001438
  0.0031441 -0.0006692
  0.0129638 -0.0028043
  0.0459682 -0.0099760
  0.1335709 -0.0307888
  0.2937170 -0.0731027
  0.4118032 -0.1404628
  0.2389097 -0.1281762
  0.0180750  0.2734604
 -0.0039175  0.5831421
  0.0012194  0.2880620
    2
  -11.329511    0.000000
    0.000000   -0.706104
* P-type functions
    8    1
 2.4525670D+05 5.8932910D+01 1.3755350D+01 4.2164940D+00 1.4937720D+00
 5.6387880D-01 2.1711960D-01 8.0478260D-02
  0.0000000
  0.0022559
  0.0164414
  0.0692941
  0.2050245
  0.3783243
  0.4103445
  0.1616921
    1
   -0.433099
*
******************************************************************************
/N.ANO-DK3.Tsuchiya.12s8p.2s1p.
Takashi Tsuchiya, Minori Abe, Takahito Nakajima and Kimihoko Hirao,
J. Chem. Phys., 115, 4463 (2001)
******************************************************************************
*                                                                            *
* NITROGEN: N                                                                *
* ===========                                                                *
*   Reference state:                                                         *
*        The atomic ground state, N(4S)                                      *
*   Relativistic effect:                                                     *
*        The scalar relativistic third-order Douglas-Kroll(DK3) method       *
*   Primitive functions:                                                     *
*        Optimized by the total energy minimization in DK3-SCF               *
*   Contraction:                                                             *
*        Taken from the DK3-SCF orbital coefficients                         *
*                                                                            *
******************************************************************************
Options
FockOperator
EndOptions
   7.000000            1
* S-type functions
   12    2
 4.8826840D+04 7.2247520D+03 1.6347500D+03 4.6257430D+02 1.5111380D+02
 5.4494730D+01 2.1114050D+01 8.6208790D+00 3.5983780D+00 1.0772050D+00
 4.2258370D-01 1.5943640D-01
  0.0001741 -0.0000384
  0.0008232 -0.0001823
  0.0037639 -0.0008296
  0.0149745 -0.0033556
  0.0508005 -0.0114498
  0.1416139 -0.0340499
  0.2997938 -0.0785096
  0.4020946 -0.1459149
  0.2257692 -0.1212977
  0.0181184  0.2682677
 -0.0029319  0.5829653
  0.0010056  0.2982498
    2
  -15.637048   -0.000001
   -0.000001   -0.946248
* P-type functions
    8    1
 5.6295490D+02 7.9426320D+01 2.0132560D+01 6.3655350D+00 2.2806870D+00
 8.6447220D-01 3.2919430D-01 1.2069820D-01
  0.0001355
  0.0023242
  0.0160947
  0.0684727
  0.2016746
  0.3739485
  0.4093448
  0.1759819
    1
   -0.567226
*
******************************************************************************
/O.ANO-DK3.Tsuchiya.12s8p.2s1p.
Takashi Tsuchiya, Minori Abe, Takahito Nakajima and Kimihoko Hirao,
J. Chem. Phys., 115, 4463 (2001)
******************************************************************************
*                                                                            *
* OXYGEN: O                                                                  *
* =========                                                                  *
*   Reference state:                                                         *
*        The atomic ground state, O(3P)                                      *
*   Relativistic effect:                                                     *
*        The scalar relativistic third-order Douglas-Kroll(DK3) method       *
*   Primitive functions:                                                     *
*        Optimized by the total energy minimization in DK3-SCF               *
*   Contraction:                                                             *
*        Taken from the DK3-SCF orbital coefficients                         *
*                                                                            *
******************************************************************************
Options
FockOperator
EndOptions
   8.000000            1
* S-type functions
   12    2
 1.0923490D+05 1.5421330D+04 3.2728280D+03 8.7010720D+02 2.6827060D+02
 9.1492820D+01 3.3617400D+01 1.3046480D+01 5.2035230D+00 1.4774290D+00
 5.7775210D-01 2.1267430D-01
  0.0001217 -0.0000276
  0.0005400 -0.0001231
  0.0024511 -0.0005555
  0.0102669 -0.0023660
  0.0377960 -0.0087062
  0.1166062 -0.0285008
  0.2773524 -0.0728022
  0.4218986 -0.1491252
  0.2677807 -0.1395426
  0.0241023  0.2652784
 -0.0044785  0.5898264
  0.0014688  0.2955465
    2
  -20.683296   -0.000003
   -0.000003   -1.246098
* P-type functions
    8    1
 3.6640670D+02 6.6279560D+01 1.8745580D+01 6.4268600D+00 2.4445130D+00
 9.5771700D-01 3.6884010D-01 1.3644960D-01
  0.0003957
  0.0047148
  0.0263073
  0.0963098
  0.2384549
  0.3777412
  0.3689625
  0.1495526
    1
   -0.631446
*
******************************************************************************
/F.ANO-DK3.Tsuchiya.12s8p.2s1p.
Takashi Tsuchiya, Minori Abe, Takahito Nakajima and Kimihoko Hirao,
J. Chem. Phys., 115, 4463 (2001)
******************************************************************************
*                                                                            *
* FLUORINE: F                                                                *
* ===========                                                                *
*   Reference state:                                                         *
*        The atomic ground state, F(2P)                                      *
*   Relativistic effect:                                                     *
*        The scalar relativistic third-order Douglas-Kroll(DK3) method       *
*   Primitive functions:                                                     *
*        Optimized by the total energy minimization in DK3-SCF               *
*   Contraction:                                                             *
*        Taken from the DK3-SCF orbital coefficients                         *
*                                                                            *
******************************************************************************
Options
FockOperator
EndOptions
   9.000000            1
* S-type functions
   12    2
 1.1049550D+05 1.5883580D+04 3.5492390D+03 9.8969550D+02 3.1932050D+02
 1.1337070D+02 4.2968910D+01 1.6933990D+01 6.7785120D+00 1.9343030D+00
 7.5047140D-01 2.7320820D-01
  0.0001633 -0.0000378
  0.0006918 -0.0001611
  0.0029074 -0.0006727
  0.0113741 -0.0026796
  0.0393741 -0.0092684
  0.1157825 -0.0289983
  0.2708393 -0.0727212
  0.4178100 -0.1504609
  0.2738892 -0.1421046
  0.0262721  0.2671760
 -0.0047615  0.5926633
  0.0016021  0.2927879
    2
  -26.407284   -0.000007
   -0.000007   -1.575560
* P-type functions
    8    1
 3.4519790D+02 7.4125440D+01 2.2561850D+01 7.9804130D+00 3.0727400D+00
 1.2100660D+00 4.6432470D-01 1.6923000D-01
  0.0006124
  0.0056268
  0.0288925
  0.1031980
  0.2457403
  0.3742403
  0.3603010
  0.1512699
    1
   -0.729340
*
******************************************************************************
/Ne.ANO-DK3.Tsuchiya.12s8p.2s1p.
Takashi Tsuchiya, Minori Abe, Takahito Nakajima and Kimihoko Hirao,
J. Chem. Phys., 115, 4463 (2001)
******************************************************************************
*                                                                            *
* NEON: Ne                                                                   *
* ========                                                                   *
*   Reference state:                                                         *
*        The atomic ground state, Ne(1S)                                     *
*   Relativistic effect:                                                     *
*        The scalar relativistic third-order Douglas-Kroll(DK3) method       *
*   Primitive functions:                                                     *
*        Optimized by the total energy minimization in DK3-SCF               *
*   Contraction:                                                             *
*        Taken from the DK3-SCF orbital coefficients                         *
*                                                                            *
******************************************************************************
Options
FockOperator
EndOptions
  10.000000            1
* S-type functions
   12    2
 1.0027703D+05 1.5024777D+04 3.4194243D+03 9.6833099D+02 3.1576162D+02
 1.1381543D+02 4.4142643D+01 1.8081932D+01 7.5854437D+00 2.3503864D+00
 9.0552447D-01 3.3151899D-01
  0.0002301 -0.0000541
  0.0009442 -0.0002231
  0.0039169 -0.0009214
  0.0150440 -0.0036033
  0.0506811 -0.0122007
  0.1415561 -0.0365407
  0.3015704 -0.0851788
  0.4014370 -0.1581241
  0.2227955 -0.1160160
  0.0191502  0.2965008
 -0.0022686  0.5861880
  0.0009763  0.2735738
    2
  -32.811473   -0.000012
   -0.000012   -1.935397
* P-type functions
    8    1
 2.9874009D+02 7.0702612D+01 2.2515939D+01 8.2802704D+00 3.2879672D+00
 1.3221027D+00 5.1743659D-01 1.9198390D-01
  0.0010899
  0.0084663
  0.0396798
  0.1273139
  0.2691812
  0.3712341
  0.3298036
  0.1281071
    1
   -0.849604
*
******************************************************************************
/Na.ANO-DK3.Tsuchiya.16s11p.3s1p.
Takashi Tsuchiya, Minori Abe, Takahito Nakajima and Kimihoko Hirao,
J. Chem. Phys., 115, 4463 (2001)
******************************************************************************
*                                                                            *
* SODIUM: Na                                                                 *
* ==========                                                                 *
*   Reference state:                                                         *
*        The atomic ground state, Na(2S)                                     *
*   Relativistic effect:                                                     *
*        The scalar relativistic third-order Douglas-Kroll(DK3) method       *
*   Primitive functions:                                                     *
*        Optimized by the total energy minimization in DK3-SCF               *
*   Contraction:                                                             *
*        Taken from the DK3-SCF orbital coefficients                         *
*                                                                            *
******************************************************************************
Options
FockOperator
EndOptions
  11.000000            1
* S-type functions
   16    3
 5.0537790D+08 3.5490950D+05 4.9559050D+04 1.0648830D+04 2.8641880D+03
 8.9995120D+02 3.1521240D+02 1.1999330D+02 4.8706540D+01 2.0732000D+01
 8.9898210D+00 3.0107970D+00 1.2157860D+00 4.8074890D-01 5.9497170D-02
 2.3714950D-02
  0.0000009 -0.0000002  0.0000000
  0.0001046 -0.0000256 -0.0000039
  0.0003971 -0.0000972 -0.0000146
  0.0014924 -0.0003672 -0.0000551
  0.0055392 -0.0013582 -0.0002050
  0.0193017 -0.0048217 -0.0007233
  0.0598792 -0.0151217 -0.0022910
  0.1549282 -0.0420946 -0.0063303
  0.3074808 -0.0927452 -0.0142569
  0.3840697 -0.1621367 -0.0248682
  0.2049141 -0.1112899 -0.0184020
  0.0189263  0.2849907  0.0520755
 -0.0020099  0.5849984  0.1147950
  0.0010174  0.2825873  0.1674811
 -0.0001671  0.0051616 -0.6326926
  0.0000841 -0.0017567 -0.4660395
    3
  -40.537048   -0.000031    0.000075
   -0.000031   -2.804891   -0.001106
    0.000075   -0.001106   -0.182318
* P-type functions
   11    1
 1.2039210D+03 2.7918010D+02 8.9503960D+01 3.3513740D+01 1.3784940D+01
 6.0591920D+00 2.7675380D+00 1.2969130D+00 6.4171030D-01 3.3142390D-01
 1.5156870D-01
  0.0001697
  0.0013579
  0.0073022
  0.0288675
  0.0874884
  0.1928101
  0.2966548
  0.3158156
  0.2174861
  0.0928687
  0.0131758
    1
   -1.516960
*
******************************************************************************
/Mg.ANO-DK3.Tsuchiya.16s11p.3s1p.
Takashi Tsuchiya, Minori Abe, Takahito Nakajima and Kimihoko Hirao,
J. Chem. Phys., 115, 4463 (2001)
******************************************************************************
*                                                                            *
* MAGNESIUM: Mg                                                              *
* =============                                                              *
*   Reference state:                                                         *
*        The atomic ground state, Mg(1S)                                     *
*   Relativistic effect:                                                     *
*        The scalar relativistic third-order Douglas-Kroll(DK3) method       *
*   Primitive functions:                                                     *
*        Optimized by the total energy minimization in DK3-SCF               *
*   Contraction:                                                             *
*        Taken from the DK3-SCF orbital coefficients                         *
*                                                                            *
******************************************************************************
Options
FockOperator
EndOptions
  12.000000            1
* S-type functions
   16    3
 1.6940680D+06 1.9233690D+05 3.9966580D+04 1.0658150D+04 3.2031780D+03
 1.0644670D+03 3.8524090D+02 1.4966940D+02 6.1396250D+01 2.6307710D+01
 1.1481140D+01 4.1640140D+00 1.7538990D+00 7.1374240D-01 1.1313050D-01
 4.0721010D-02
  0.0000409 -0.0000104 -0.0000020
  0.0001624 -0.0000412 -0.0000079
  0.0005057 -0.0001282 -0.0000247
  0.0016602 -0.0004227 -0.0000815
  0.0056951 -0.0014490 -0.0002786
  0.0189089 -0.0048813 -0.0009435
  0.0569286 -0.0149340 -0.0028729
  0.1464135 -0.0409087 -0.0079635
  0.2948228 -0.0920185 -0.0178703
  0.3833976 -0.1614845 -0.0325137
  0.2232379 -0.1314242 -0.0264202
  0.0252294  0.2187985  0.0477700
 -0.0021028  0.5828543  0.1612811
  0.0011183  0.3494029  0.2017332
 -0.0001740  0.0100994 -0.5961927
  0.0000771 -0.0031912 -0.5327349
    3
  -49.116240   -0.000051   -0.000009
   -0.000051   -3.779514    0.000002
   -0.000009    0.000002   -0.253350
* P-type functions
   11    1
 1.2134440D+03 2.7466330D+02 8.7111880D+01 3.2753450D+01 1.3630200D+01
 6.0397180D+00 2.7455230D+00 1.2383500D+00 9.0131990D-01 5.8515990D-01
 2.3001770D-01
 -0.0002479
 -0.0020541
 -0.0108897
 -0.0411937
 -0.1169983
 -0.2373102
 -0.3388711
 -0.3441383
  0.0369074
 -0.1675183
 -0.0184309
    1
   -2.280446
*
******************************************************************************
/Al.ANO-DK3.Tsuchiya.16s11p.3s2p.
Takashi Tsuchiya, Minori Abe, Takahito Nakajima and Kimihoko Hirao,
J. Chem. Phys., 115, 4463 (2001)
******************************************************************************
*                                                                            *
* ALUMINUM: Al                                                               *
* ============                                                               *
*   Reference state:                                                         *
*        The atomic ground state, Al(2P)                                     *
*   Relativistic effect:                                                     *
*        The scalar relativistic third-order Douglas-Kroll(DK3) method       *
*   Primitive functions:                                                     *
*        Optimized by the total energy minimization in DK3-SCF               *
*   Contraction:                                                             *
*        Taken from the DK3-SCF orbital coefficients                         *
*                                                                            *
******************************************************************************
Options
FockOperator
EndOptions
  13.000000            1
* S-type functions
   16    3
 1.4629480D+06 1.9152620D+05 3.7762870D+04 9.8457790D+03 3.0711180D+03
 1.0708940D+03 4.0689400D+02 1.6595320D+02 7.0830320D+01 3.1078560D+01
 1.3714470D+01 5.1101110D+00 2.2218860D+00 9.3876970D-01 1.8217580D-01
 6.5149610D-02
  0.0000535 -0.0000140 -0.0000032
  0.0001987 -0.0000519 -0.0000120
  0.0006852 -0.0001789 -0.0000412
  0.0021881 -0.0005737 -0.0001329
  0.0070158 -0.0018399 -0.0004227
  0.0218383 -0.0058192 -0.0013542
  0.0612084 -0.0166029 -0.0038102
  0.1477088 -0.0427940 -0.0100643
  0.2882614 -0.0932823 -0.0215774
  0.3763509 -0.1636461 -0.0401129
  0.2246346 -0.1356255 -0.0320189
  0.0269217  0.2083737  0.0523983
 -0.0021837  0.5781054  0.2066897
  0.0011545  0.3623572  0.2317678
 -0.0001952  0.0131123 -0.6262596
  0.0000763 -0.0033545 -0.5316555
    3
  -58.619538   -0.000102   -0.000018
   -0.000102   -4.928039    0.000030
   -0.000018    0.000030   -0.394134
* P-type functions
   11    2
 1.3478230D+03 3.1320780D+02 9.7617320D+01 3.5127490D+01 1.3850100D+01
 5.7392250D+00 2.4003200D+00 9.9561500D-01 3.3667850D-01 1.2119170D-01
 4.2488240D-02
  0.0002880 -0.0000519
  0.0023009 -0.0004135
  0.0129228 -0.0023392
  0.0529030 -0.0096323
  0.1572720 -0.0293251
  0.3157161 -0.0595749
  0.4036788 -0.0808808
  0.2551224 -0.0496639
  0.0327197  0.1963935
 -0.0032202  0.5530354
  0.0012276  0.3990669
    2
   -3.216070    0.001609
    0.001609   -0.209442
*
******************************************************************************
/Si.ANO-DK3.Tsuchiya.16s11p.3s2p.
Takashi Tsuchiya, Minori Abe, Takahito Nakajima and Kimihoko Hirao,
J. Chem. Phys., 115, 4463 (2001)
******************************************************************************
*                                                                            *
* SILICON: Si                                                                *
* ===========                                                                *
*   Reference state:                                                         *
*        The atomic ground state, Si(3P)                                     *
*   Relativistic effect:                                                     *
*        The scalar relativistic third-order Douglas-Kroll(DK3) method       *
*   Primitive functions:                                                     *
*        Optimized by the total energy minimization in DK3-SCF               *
*   Contraction:                                                             *
*        Taken from the DK3-SCF orbital coefficients                         *
*                                                                            *
******************************************************************************
Options
FockOperator
EndOptions
  14.000000            1
* S-type functions
   16    3
 1.4532050D+06 1.8302460D+05 3.7505200D+04 9.8992510D+03 3.0673790D+03
 1.0688040D+03 4.0615850D+02 1.6487680D+02 7.0465290D+01 3.1359840D+01
 1.4240230D+01 5.5168310D+00 2.4571510D+00 1.0999210D+00 2.5729500D-01
 9.1532160D-02
  0.0000667 -0.0000178 -0.0000046
  0.0002489 -0.0000666 -0.0000171
  0.0008177 -0.0002188 -0.0000559
  0.0026394 -0.0007092 -0.0001825
  0.0085157 -0.0022918 -0.0005837
  0.0261926 -0.0071705 -0.0018557
  0.0729649 -0.0204393 -0.0051983
  0.1725112 -0.0520887 -0.0136655
  0.3148181 -0.1086411 -0.0278661
  0.3599734 -0.1729309 -0.0480449
  0.1792547 -0.1073098 -0.0267738
  0.0184579  0.2679652  0.0747961
 -0.0011922  0.5748153  0.2582519
  0.0007870  0.3080514  0.2123543
 -0.0001432  0.0117947 -0.6487283
  0.0000455 -0.0022364 -0.5312266
    3
  -68.975846   -0.000131   -0.000030
   -0.000131   -6.182134    0.000010
   -0.000030    0.000010   -0.541393
* P-type functions
   11    2
 1.7614500D+03 3.5227440D+02 1.0383810D+02 3.6926340D+01 1.4694410D+01
 6.2293350D+00 2.7058220D+00 1.1769120D+00 4.1866660D-01 1.6047890D-01
 5.9297820D-02
  0.0002832 -0.0000608
  0.0027537 -0.0005865
  0.0160379 -0.0034693
  0.0642406 -0.0139080
  0.1792795 -0.0403209
  0.3313769 -0.0744519
  0.3887278 -0.0976293
  0.2173788 -0.0326605
  0.0246143  0.2718293
 -0.0020769  0.5526579
  0.0008805  0.3192874
    2
   -4.254181    0.002399
    0.002399   -0.296507
*
******************************************************************************
/P.ANO-DK3.Tsuchiya.16s11p.3s2p.
Takashi Tsuchiya, Minori Abe, Takahito Nakajima and Kimihoko Hirao,
J. Chem. Phys., 115, 4463 (2001)
******************************************************************************
*                                                                            *
* PHOSPHORUS: P                                                              *
* =============                                                              *
*   Reference state:                                                         *
*        The atomic ground state, P(4S)                                      *
*   Relativistic effect:                                                     *
*        The scalar relativistic third-order Douglas-Kroll(DK3) method       *
*   Primitive functions:                                                     *
*        Optimized by the total energy minimization in DK3-SCF               *
*   Contraction:                                                             *
*        Taken from the DK3-SCF orbital coefficients                         *
*                                                                            *
******************************************************************************
Options
FockOperator
EndOptions
  15.000000            1
* S-type functions
   16    3
 1.4602470D+06 1.8357460D+05 3.7467910D+04 9.8733730D+03 3.0623380D+03
 1.0676600D+03 4.0618090D+02 1.6496500D+02 7.0411130D+01 3.1296320D+01
 1.4259500D+01 5.5701620D+00 2.4627800D+00 1.1410240D+00 3.3118200D-01
 1.1800560D-01
  0.0000799 -0.0000218 -0.0000060
  0.0002983 -0.0000815 -0.0000224
  0.0009823 -0.0002683 -0.0000736
  0.0031603 -0.0008676 -0.0002394
  0.0101486 -0.0027913 -0.0007634
  0.0310082 -0.0086988 -0.0024129
  0.0851386 -0.0245254 -0.0067078
  0.1963054 -0.0616759 -0.0173632
  0.3396839 -0.1245954 -0.0345378
  0.3436426 -0.1832001 -0.0551420
  0.1354679 -0.0655892 -0.0162065
  0.0100754  0.3728315  0.1199906
 -0.0002121  0.5731492  0.3242153
  0.0003356  0.2005328  0.1337547
 -0.0000816  0.0070642 -0.6805545
  0.0000157 -0.0006752 -0.5112161
    3
  -80.188530   -0.000226   -0.000057
   -0.000226   -7.546747    0.000056
   -0.000057    0.000056   -0.699018
* P-type functions
   11    2
 2.0882410D+03 4.4994810D+02 1.3483760D+02 4.7843450D+01 1.8974450D+01
 7.9999640D+00 3.4517080D+00 1.4990910D+00 5.4416330D-01 2.1177930D-01
 7.9410370D-02
  0.0002742 -0.0000656
  0.0023603 -0.0005583
  0.0138646 -0.0033418
  0.0572872 -0.0137795
  0.1670816 -0.0419335
  0.3275287 -0.0822622
  0.4007563 -0.1127047
  0.2246035 -0.0327455
  0.0250935  0.3047042
 -0.0020020  0.5516408
  0.0007155  0.2866630
    2
   -5.399213    0.000550
    0.000550   -0.390955
*
******************************************************************************
/S.ANO-DK3.Tsuchiya.16s11p.3s2p.
Takashi Tsuchiya, Minori Abe, Takahito Nakajima and Kimihoko Hirao,
J. Chem. Phys., 115, 4463 (2001)
******************************************************************************
*                                                                            *
* SULFUR: S                                                                  *
* =========                                                                  *
*   Reference state:                                                         *
*        The atomic ground state, S(3P)                                      *
*   Relativistic effect:                                                     *
*        The scalar relativistic third-order Douglas-Kroll(DK3) method       *
*   Primitive functions:                                                     *
*        Optimized by the total energy minimization in DK3-SCF               *
*   Contraction:                                                             *
*        Taken from the DK3-SCF orbital coefficients                         *
*                                                                            *
******************************************************************************
Options
FockOperator
EndOptions
  16.000000            1
* S-type functions
   16    3
 1.4624900D+06 1.8318600D+05 3.7362930D+04 9.8356230D+03 3.0561810D+03
 1.0666020D+03 4.0570210D+02 1.6515130D+02 7.0536460D+01 3.1093080D+01
 1.3786740D+01 5.6284700D+00 2.4316130D+00 1.0160220D+00 3.8879040D-01
 1.4182360D-01
  0.0000949 -0.0000264 -0.0000077
  0.0003547 -0.0000986 -0.0000287
  0.0011669 -0.0003246 -0.0000942
  0.0037462 -0.0010473 -0.0003048
  0.0119436 -0.0033512 -0.0009715
  0.0363168 -0.0104018 -0.0030393
  0.0982349 -0.0290825 -0.0084563
  0.2193767 -0.0714582 -0.0211813
  0.3597905 -0.1406737 -0.0418334
  0.3249012 -0.1895865 -0.0601227
  0.0962670 -0.0132518 -0.0017705
  0.0030813  0.4727353  0.1783915
  0.0011935  0.5593349  0.3805907
 -0.0003571  0.1013694  0.0126380
  0.0001159 -0.0012976 -0.7170143
 -0.0000422  0.0010433 -0.4553098
    3
  -92.200215   -0.007874   -0.002810
   -0.007874   -9.017559    0.001964
   -0.002810    0.001964   -0.881732
* P-type functions
   11    2
 2.0282170D+03 4.6207420D+02 1.4752100D+02 5.5026120D+01 2.2478250D+01
 9.6724070D+00 4.2437700D+00 1.8672210D+00 6.8571640D-01 2.6217470D-01
 9.5072720D-02
  0.0003641  0.0000935
  0.0027823  0.0007043
  0.0145342  0.0037663
  0.0565753  0.0145733
  0.1623156  0.0438971
  0.3204720  0.0864364
  0.4003962  0.1223351
  0.2301640  0.0295494
  0.0268264 -0.3270710
 -0.0016492 -0.5439183
  0.0009415 -0.2792492
    2
   -6.644422   -0.008576
   -0.008576   -0.435632
*
******************************************************************************
/Cl.ANO-DK3.Tsuchiya.16s11p.3s2p.
Takashi Tsuchiya, Minori Abe, Takahito Nakajima and Kimihoko Hirao,
J. Chem. Phys., 115, 4463 (2001)
******************************************************************************
*                                                                            *
* CHLORINE: Cl                                                               *
* ============                                                               *
*   Reference state:                                                         *
*        The atomic ground state, Cl(2P)                                     *
*   Relativistic effect:                                                     *
*        The scalar relativistic third-order Douglas-Kroll(DK3) method       *
*   Primitive functions:                                                     *
*        Optimized by the total energy minimization in DK3-SCF               *
*   Contraction:                                                             *
*        Taken from the DK3-SCF orbital coefficients                         *
*                                                                            *
******************************************************************************
Options
FockOperator
EndOptions
  17.000000            1
* S-type functions
   16    3
 1.4681380D+06 1.8161420D+05 3.7093820D+04 9.8301760D+03 3.0535910D+03
 1.0656650D+03 4.0523290D+02 1.6511050D+02 7.0764460D+01 3.0964810D+01
 1.2781670D+01 5.6325000D+00 2.4608260D+00 8.3277000D-01 3.8426000D-01
 1.5207480D-01
  0.0001118 -0.0000316 -0.0000095
  0.0004211 -0.0001189 -0.0000360
  0.0013699 -0.0003874 -0.0001173
  0.0043731 -0.0012414 -0.0003757
  0.0139379 -0.0039839 -0.0012082
  0.0420525 -0.0122576 -0.0037167
  0.1122642 -0.0341506 -0.0104256
  0.2422433 -0.0815492 -0.0250499
  0.3728166 -0.1559381 -0.0492284
  0.3018821 -0.1875583 -0.0612376
  0.0660723  0.0556172  0.0189292
 -0.0029390  0.5440752  0.2415652
  0.0023649  0.4968049  0.3763121
 -0.0009642  0.0558749 -0.1971496
  0.0004972 -0.0094582 -0.6925665
 -0.0001359  0.0024678 -0.3284964
    3
 -105.256636   -0.000520   -0.000146
   -0.000520  -10.672359    0.000167
   -0.000146    0.000167   -1.078917
* P-type functions
   11    2
 2.1826550D+03 4.6749890D+02 1.4475210D+02 5.3805760D+01 2.2302900D+01
 9.7571330D+00 4.3889950D+00 1.9935790D+00 7.8229290D-01 3.0360500D-01
 1.1144440D-01
  0.0004305  0.0001166
  0.0035851  0.0009634
  0.0190612  0.0052175
  0.0709965  0.0195011
  0.1890280  0.0543788
  0.3433744  0.0994406
  0.3816835  0.1259261
  0.1833206 -0.0059708
  0.0183511 -0.3638986
  0.0001605 -0.5226703
  0.0006800 -0.2519793
    2
   -8.072007   -0.013057
   -0.013057   -0.505367
*
******************************************************************************
/Ar.ANO-DK3.Tsuchiya.16s11p.3s2p.
Takashi Tsuchiya, Minori Abe, Takahito Nakajima and Kimihoko Hirao,
J. Chem. Phys., 115, 4463 (2001)
******************************************************************************
*                                                                            *
* ARGON: Ar                                                                  *
* =========                                                                  *
*   Reference state:                                                         *
*        The atomic ground state, Ar(1S)                                     *
*   Relativistic effect:                                                     *
*        The scalar relativistic third-order Douglas-Kroll(DK3) method       *
*   Primitive functions:                                                     *
*        Optimized by the total energy minimization in DK3-SCF               *
*   Contraction:                                                             *
*        Taken from the DK3-SCF orbital coefficients                         *
*                                                                            *
******************************************************************************
Options
FockOperator
EndOptions
  18.000000            1
* S-type functions
   16    3
 9.0594654D+05 1.3567833D+05 3.0875153D+04 8.7435747D+03 2.8515182D+03
 1.0287890D+03 4.0062368D+02 1.6543793D+02 7.1440876D+01 3.1593420D+01
 1.2909758D+01 5.9392494D+00 2.6826989D+00 9.4345618D-01 4.2511714D-01
 1.7179354D-01
  0.0001793 -0.0000513 -0.0000160
  0.0005718 -0.0001637 -0.0000512
  0.0017862 -0.0005126 -0.0001604
  0.0054639 -0.0015731 -0.0004915
  0.0167481 -0.0048709 -0.0015280
  0.0487578 -0.0144591 -0.0045253
  0.1256297 -0.0392332 -0.0124104
  0.2622661 -0.0912103 -0.0289542
  0.3769579 -0.1679430 -0.0553033
  0.2705108 -0.1751224 -0.0591078
  0.0496431  0.1088562  0.0384730
 -0.0035105  0.5631311  0.2772990
  0.0021569  0.4455695  0.3586965
 -0.0008537  0.0446656 -0.2783291
  0.0004017 -0.0057314 -0.6808338
 -0.0001151  0.0017962 -0.2806506
    3
 -119.087308   -0.000585   -0.000178
   -0.000585  -12.408586    0.000051
   -0.000178    0.000051   -1.286188
* P-type functions
   11    2
 1.8688067D+03 4.4294722D+02 1.4319547D+02 5.4013866D+01 2.2378905D+01
 9.7396561D+00 4.3610083D+00 1.9585564D+00 8.2555522D-01 3.2961519D-01
 1.2421539D-01
  0.0006458  0.0001809
  0.0046354  0.0012970
  0.0233101  0.0066077
  0.0848159  0.0243936
  0.2185501  0.0653639
  0.3739721  0.1152319
  0.3643618  0.1227584
  0.1284126 -0.0660230
  0.0069578 -0.4036956
  0.0008114 -0.4897753
 -0.0001458 -0.2085800
    2
   -9.574131    0.000000
    0.000000   -0.590164
*
******************************************************************************
/K.ANO-DK3.Tsuchiya.20s15p.4s2p.
Takashi Tsuchiya, Minori Abe, Takahito Nakajima and Kimihoko Hirao,
J. Chem. Phys., 115, 4463 (2001)
******************************************************************************
*                                                                            *
* POTASSIUM: K                                                               *
* ============                                                               *
*   Reference state:                                                         *
*        The atomic ground state, K(2S)                                      *
*   Relativistic effect:                                                     *
*        The scalar relativistic third-order Douglas-Kroll(DK3) method       *
*   Primitive functions:                                                     *
*        Optimized by the total energy minimization in DK3-SCF               *
*   Contraction:                                                             *
*        Taken from the DK3-SCF orbital coefficients                         *
*                                                                            *
******************************************************************************
Options
FockOperator
EndOptions
  19.000000            1
* S-type functions
   20    4
 1.4612300D+07 1.7414610D+06 3.3617610D+05 8.4319950D+04 2.5264470D+04
 8.6259150D+03 3.2209340D+03 1.2857860D+03 5.4360000D+02 2.4031470D+02
 1.0970850D+02 5.1441940D+01 2.4486550D+01 1.0391780D+01 4.9151520D+00
 2.3731580D+00 8.7295440D-01 3.7526360D-01 1.6715900D-01 2.7677640D-02
  0.0000266 -0.0000077 -0.0000025 -0.0000005
  0.0000961 -0.0000278 -0.0000092 -0.0000018
  0.0002874 -0.0000833 -0.0000274 -0.0000053
  0.0007870 -0.0002284 -0.0000754 -0.0000146
  0.0020805 -0.0006044 -0.0001989 -0.0000381
  0.0055200 -0.0016136 -0.0005337 -0.0001039
  0.0149213 -0.0043847 -0.0014420 -0.0002746
  0.0392041 -0.0117771 -0.0039145 -0.0007676
  0.0945382 -0.0293776 -0.0096949 -0.0018319
  0.1975968 -0.0671203 -0.0226560 -0.0044908
  0.3215846 -0.1283417 -0.0433140 -0.0080798
  0.3244053 -0.1822897 -0.0656580 -0.0134905
  0.1422935 -0.0812799 -0.0278299 -0.0039308
  0.0138401  0.3222522  0.1326497  0.0226153
 -0.0005783  0.5770640  0.3830288  0.0883167
  0.0004626  0.2501091  0.2030631  0.0279982
 -0.0002111  0.0168898 -0.5681065 -0.1100322
  0.0000700 -0.0016616 -0.5939107 -0.2832183
 -0.0000301  0.0008655 -0.0910756 -0.0372829
  0.0000033 -0.0000840 -0.0010192  1.0759191
    4
 -134.132605   -0.000848   -0.000274   -0.000038
   -0.000848  -14.600920    0.000079   -0.000083
   -0.000274    0.000079   -1.760841   -0.001139
   -0.000038   -0.000083   -0.001139   -0.147569
* P-type functions
   15    2
 1.1082040D+05 1.4565150D+04 3.3308110D+03 1.0190310D+03 3.6797120D+02
 1.4780250D+02 6.4062590D+01 2.9418030D+01 1.3980790D+01 6.7780980D+00
 3.3199720D+00 1.5460510D+00 7.1067870D-01 3.1792930D-01 1.3372930D-01
  0.0000059 -0.0000018
  0.0000416 -0.0000127
  0.0002462 -0.0000749
  0.0013023 -0.0003987
  0.0059467 -0.0018189
  0.0226199 -0.0070091
  0.0701561 -0.0220302
  0.1698291 -0.0552435
  0.3025259 -0.1009779
  0.3624998 -0.1313478
  0.2241502 -0.0482041
  0.0437275  0.2292632
  0.0001945  0.4599655
  0.0006921  0.3791873
 -0.0001575  0.0896727
    2
  -11.524240    0.000001
    0.000001   -0.953092
*
******************************************************************************
/Ca.ANO-DK3.Tsuchiya.20s15p.4s2p.
Takashi Tsuchiya, Minori Abe, Takahito Nakajima and Kimihoko Hirao,
J. Chem. Phys., 115, 4463 (2001)
******************************************************************************
*                                                                            *
* CALCIUM: Ca                                                                *
* ===========                                                                *
*   Reference state:                                                         *
*        The atomic ground state, Ca(1S)                                     *
*   Relativistic effect:                                                     *
*        The scalar relativistic third-order Douglas-Kroll(DK3) method       *
*   Primitive functions:                                                     *
*        Optimized by the total energy minimization in DK3-SCF               *
*   Contraction:                                                             *
*        Taken from the DK3-SCF orbital coefficients                         *
*                                                                            *
******************************************************************************
Options
FockOperator
EndOptions
  20.000000            1
* S-type functions
   20    4
 1.5429060D+07 1.7177660D+06 3.2529080D+05 8.3104290D+04 2.5219110D+04
 8.6628000D+03 3.2209670D+03 1.2837380D+03 5.4345920D+02 2.4083900D+02
 1.0996770D+02 5.1344530D+01 2.4284190D+01 1.0500930D+01 4.9229230D+00
 2.3406070D+00 9.2145250D-01 3.8267100D-01 6.5332900D-02 2.6184550D-02
  0.0000301 -0.0000088 -0.0000030 -0.0000007
  0.0001145 -0.0000335 -0.0000116 -0.0000028
  0.0003372 -0.0000988 -0.0000341 -0.0000081
  0.0009008 -0.0002645 -0.0000913 -0.0000218
  0.0023628 -0.0006946 -0.0002394 -0.0000572
  0.0062755 -0.0018570 -0.0006423 -0.0001537
  0.0170451 -0.0050761 -0.0017494 -0.0004176
  0.0443690 -0.0135341 -0.0047028 -0.0011264
  0.1053518 -0.0333900 -0.0115647 -0.0027619
  0.2148118 -0.0750735 -0.0265217 -0.0063676
  0.3356527 -0.1403827 -0.0499914 -0.0119729
  0.3098439 -0.1865678 -0.0707038 -0.0171470
  0.1121979 -0.0437062 -0.0151920 -0.0035388
  0.0076599  0.4006365  0.1845486  0.0455655
  0.0003493  0.5694037  0.4374290  0.1163776
 -0.0000342  0.1761242  0.1071278  0.0248393
 -0.0000417  0.0079433 -0.7090708 -0.2298038
 -0.0000153  0.0004690 -0.5241506 -0.3351936
  0.0000009  0.0000715 -0.0146731  0.6714642
 -0.0000005 -0.0000301  0.0046132  0.4919800
    4
 -150.108269   -0.001132   -0.000390   -0.000096
   -0.001132  -16.963152    0.000114    0.000026
   -0.000390    0.000114   -2.261562    0.000009
   -0.000096    0.000026    0.000009   -0.196253
* P-type functions
   15    2
 5.1912480D+04 8.8878330D+03 2.4233700D+03 8.3383440D+02 3.2965730D+02
 1.4247560D+02 6.5465540D+01 3.1433170D+01 1.5494100D+01 7.7651150D+00
 3.9249850D+00 1.9243700D+00 9.1383950D-01 4.2021050D-01 1.7575970D-01
  0.0000146 -0.0000047
  0.0000849 -0.0000277
  0.0004355 -0.0001419
  0.0019901 -0.0006511
  0.0078672 -0.0025796
  0.0265166 -0.0087995
  0.0752583 -0.0254087
  0.1713689 -0.0597992
  0.2944578 -0.1059786
  0.3493499 -0.1353237
  0.2223632 -0.0549790
  0.0498780  0.2133267
  0.0015917  0.4657830
  0.0004597  0.3898355
 -0.0001154  0.0852798
    2
  -13.637146   -0.000001
   -0.000001   -1.338832
*
******************************************************************************
/Sc.ANO-DK3.Tsuchiya.20s15p9d.4s2p1d.
Takashi Tsuchiya, Minori Abe, Takahito Nakajima and Kimihoko Hirao,
J. Chem. Phys., 115, 4463 (2001)
******************************************************************************
*                                                                            *
* SCANDIUM: Sc                                                               *
* ============                                                               *
*   Reference state:                                                         *
*        The atomic ground state, Sc(2D)                                     *
*   Relativistic effect:                                                     *
*        The scalar relativistic third-order Douglas-Kroll(DK3) method       *
*   Primitive functions:                                                     *
*        Optimized by the total energy minimization in DK3-SCF               *
*   Contraction:                                                             *
*        Taken from the DK3-SCF orbital coefficients                         *
*                                                                            *
******************************************************************************
Options
FockOperator
EndOptions
  21.000000            2
* S-type functions
   20    4
 1.2809350D+07 1.5431980D+06 3.0974160D+05 8.2804010D+04 2.5477230D+04
 8.6623970D+03 3.2094240D+03 1.2778540D+03 5.4418700D+02 2.4156850D+02
 1.1006900D+02 5.1222490D+01 2.3850440D+01 1.0651950D+01 4.9512770D+00
 2.2012840D+00 9.9520890D-01 4.2603180D-01 7.6349140D-02 2.9666690D-02
  0.0000387 -0.0000114 -0.0000040 -0.0000010
  0.0001370 -0.0000406 -0.0000143 -0.0000034
  0.0003861 -0.0001144 -0.0000403 -0.0000096
  0.0010020 -0.0002974 -0.0001048 -0.0000249
  0.0026732 -0.0007946 -0.0002801 -0.0000666
  0.0071683 -0.0021448 -0.0007568 -0.0001800
  0.0193904 -0.0058491 -0.0020650 -0.0004916
  0.0498876 -0.0154348 -0.0054673 -0.0012997
  0.1158760 -0.0374524 -0.0133198 -0.0031768
  0.2325375 -0.0835185 -0.0300810 -0.0071584
  0.3467476 -0.1523048 -0.0560996 -0.0134610
  0.2914675 -0.1863312 -0.0720061 -0.0172160
  0.0865039 -0.0008152  0.0000968 -0.0002343
  0.0029663  0.4671566  0.2380429  0.0601117
  0.0011623  0.5487909  0.4576474  0.1203099
 -0.0004857  0.1182131  0.0013824 -0.0021951
  0.0001635 -0.0007764 -0.7278829 -0.2475604
 -0.0000761  0.0019534 -0.4718296 -0.3059261
  0.0000146 -0.0002146 -0.0131891  0.6550520
 -0.0000065  0.0000958  0.0039087  0.5102173
    4
 -166.818298   -0.001507   -0.000527   -0.000132
   -0.001507  -19.259743    0.000185    0.000043
   -0.000527    0.000185   -2.590387    0.000052
   -0.000132    0.000043    0.000052   -0.211195
* P-type functions
   15    2
 5.2100920D+04 8.8783560D+03 2.4202830D+03 8.3395720D+02 3.2971210D+02
 1.4248480D+02 6.5473930D+01 3.1440280D+01 1.5489910D+01 7.7698220D+00
 3.9262920D+00 1.9039380D+00 9.0668620D-01 4.2230460D-01 1.7530430D-01
  0.0000177 -0.0000059
  0.0001035 -0.0000348
  0.0005280 -0.0001774
  0.0023998 -0.0008107
  0.0094288 -0.0031911
  0.0314558 -0.0108029
  0.0876841 -0.0306824
  0.1930508 -0.0700754
  0.3163978 -0.1188175
  0.3423856 -0.1386523
  0.1839043 -0.0117785
  0.0316476  0.2883732
  0.0005783  0.4788257
  0.0003884  0.3167219
 -0.0000695  0.0520694
    2
  -15.683511   -0.000031
   -0.000031   -1.574204
* D-type functions
    9    1
 1.2598350D+02 3.6094410D+01 1.3193220D+01 5.2908960D+00 2.2767190D+00
 9.9784630D-01 4.3224480D-01 1.8104010D-01 7.0556810D-02
  0.0007795
  0.0068256
  0.0308203
  0.0960128
  0.2112964
  0.3183156
  0.3535379
  0.2624935
  0.0872456
    1
   -0.337340
*
******************************************************************************
/Ti.ANO-DK3.Tsuchiya.20s15p9d.4s2p1d.
Takashi Tsuchiya, Minori Abe, Takahito Nakajima and Kimihoko Hirao,
J. Chem. Phys., 115, 4463 (2001)
******************************************************************************
*                                                                            *
* TITANIUM: Ti                                                               *
* ============                                                               *
*   Reference state:                                                         *
*        The atomic ground state, Ti(3F)                                     *
*   Relativistic effect:                                                     *
*        The scalar relativistic third-order Douglas-Kroll(DK3) method       *
*   Primitive functions:                                                     *
*        Optimized by the total energy minimization in DK3-SCF               *
*   Contraction:                                                             *
*        Taken from the DK3-SCF orbital coefficients                         *
*                                                                            *
******************************************************************************
Options
FockOperator
EndOptions
  22.000000            2
* S-type functions
   20    4
 1.6528400D+07 1.8552430D+06 3.4234070D+05 8.3105730D+04 2.4246960D+04
 8.1300170D+03 3.0479930D+03 1.2499940D+03 5.4615680D+02 2.4848620D+02
 1.1629540D+02 5.5604170D+01 2.6720930D+01 1.2459630D+01 6.0568740D+00
 2.9410320D+00 1.1928670D+00 4.9985810D-01 8.3406730D-02 3.2001670D-02
  0.0000371 -0.0000111 -0.0000040 -0.0000009
  0.0001406 -0.0000420 -0.0000150 -0.0000035
  0.0004316 -0.0001291 -0.0000462 -0.0000108
  0.0012053 -0.0003611 -0.0001293 -0.0000301
  0.0032488 -0.0009758 -0.0003490 -0.0000813
  0.0086461 -0.0026141 -0.0009378 -0.0002186
  0.0224573 -0.0068627 -0.0024556 -0.0005722
  0.0551190 -0.0172924 -0.0062393 -0.0014550
  0.1235688 -0.0407097 -0.0146619 -0.0034211
  0.2367399 -0.0869193 -0.0319972 -0.0074756
  0.3378931 -0.1526179 -0.0568428 -0.0133342
  0.2777385 -0.1798181 -0.0717673 -0.0168980
  0.0858563 -0.0074375 -0.0003558 -0.0001554
  0.0041656  0.4191964  0.2085994  0.0511645
  0.0009928  0.5457253  0.4523185  0.1168876
 -0.0003155  0.1691505  0.0758409  0.0174153
  0.0000486  0.0077006 -0.7209540 -0.2362647
 -0.0000427  0.0007043 -0.5097614 -0.3087522
  0.0000070  0.0000264 -0.0152885  0.6512874
 -0.0000032 -0.0000080  0.0048179  0.5057323
    4
 -184.395162   -0.002020   -0.000699   -0.000167
   -0.002020  -21.648643    0.000221    0.000051
   -0.000699    0.000221   -2.904760    0.000032
   -0.000167    0.000051    0.000032   -0.222324
* P-type functions
   15    2
 4.7945460D+04 8.2685230D+03 2.2666380D+03 7.8283370D+02 3.1041640D+02
 1.3454730D+02 6.2287110D+01 3.0404530D+01 1.5575050D+01 8.4317700D+00
 4.6479770D+00 2.4502470D+00 1.2018010D+00 5.5920010D-01 2.3479650D-01
  0.0000232 -0.0000080
  0.0001361 -0.0000468
  0.0006985 -0.0002404
  0.0031642 -0.0010910
  0.0122564 -0.0042569
  0.0399646 -0.0140538
  0.1059475 -0.0382778
  0.2139843 -0.0798632
  0.3065133 -0.1197820
  0.2956651 -0.1209521
  0.1748290 -0.0245235
  0.0426941  0.2279613
  0.0023536  0.4639247
  0.0004186  0.3746872
 -0.0000211  0.0810830
    2
  -17.816528   -0.000011
   -0.000011   -1.796910
* D-type functions
    9    1
 1.7127790D+02 4.7911700D+01 1.7369540D+01 6.9694200D+00 3.0103480D+00
 1.3292270D+00 5.7895860D-01 2.4441550D-01 9.5591120D-02
  0.0005985
  0.0056921
  0.0277346
  0.0895359
  0.2055925
  0.3206007
  0.3577158
  0.2615004
  0.0867170
    1
   -0.420774
*
******************************************************************************
/V.ANO-DK3.Tsuchiya.20s15p9d.4s2p1d.
Takashi Tsuchiya, Minori Abe, Takahito Nakajima and Kimihoko Hirao,
J. Chem. Phys., 115, 4463 (2001)
******************************************************************************
*                                                                            *
* VANADIUM: V                                                                *
* ===========                                                                *
*   Reference state:                                                         *
*        The atomic ground state, V(4F)                                      *
*   Relativistic effect:                                                     *
*        The scalar relativistic third-order Douglas-Kroll(DK3) method       *
*   Primitive functions:                                                     *
*        Optimized by the total energy minimization in DK3-SCF               *
*   Contraction:                                                             *
*        Taken from the DK3-SCF orbital coefficients                         *
*                                                                            *
******************************************************************************
Options
FockOperator
EndOptions
  23.000000            2
* S-type functions
   20    4
 1.6668050D+07 1.8566050D+06 3.4119260D+05 8.2515820D+04 2.4055780D+04
 8.0762020D+03 3.0381510D+03 1.2503670D+03 5.4660870D+02 2.4855880D+02
 1.1641900D+02 5.5484730D+01 2.6329490D+01 1.2524240D+01 6.0680070D+00
 2.8832020D+00 1.2633840D+00 5.3766090D-01 9.2506740D-02 3.4681180D-02
  0.0000418 -0.0000126 -0.0000046 -0.0000010
  0.0001594 -0.0000480 -0.0000174 -0.0000040
  0.0004899 -0.0001478 -0.0000535 -0.0000122
  0.0013690 -0.0004137 -0.0001498 -0.0000342
  0.0036798 -0.0011157 -0.0004040 -0.0000922
  0.0097392 -0.0029726 -0.0010779 -0.0002457
  0.0250587 -0.0077459 -0.0028104 -0.0006417
  0.0609312 -0.0193560 -0.0070536 -0.0016075
  0.1353298 -0.0454386 -0.0166354 -0.0038072
  0.2525971 -0.0952526 -0.0354279 -0.0080823
  0.3432888 -0.1626924 -0.0620462 -0.0143104
  0.2578247 -0.1746810 -0.0703745 -0.0161036
  0.0654135  0.0381122  0.0176346  0.0037342
  0.0017880  0.4771784  0.2596946  0.0635251
  0.0009462  0.5144969  0.4544696  0.1144341
 -0.0003295  0.1189687 -0.0204359 -0.0074736
  0.0000593  0.0037531 -0.7344339 -0.2433100
 -0.0000396  0.0010423 -0.4614115 -0.2816020
  0.0000062 -0.0000320 -0.0124333  0.6364815
 -0.0000027  0.0000165  0.0036809  0.5197961
    4
 -202.868548   -0.002589   -0.000936   -0.000208
   -0.002589  -24.161638    0.000017    0.000037
   -0.000936    0.000017   -3.228868   -0.000294
   -0.000208    0.000037   -0.000294   -0.234568
* P-type functions
   15    2
 4.7689830D+04 8.2183390D+03 2.2637380D+03 7.8402370D+02 3.1013700D+02
 1.3458010D+02 6.2327460D+01 3.0361920D+01 1.5547650D+01 8.4769040D+00
 4.7216180D+00 2.4319990D+00 1.1963690D+00 5.6242860D-01 2.3621200D-01
  0.0000279 -0.0000098
  0.0001635 -0.0000572
  0.0008272 -0.0002895
  0.0037432 -0.0013151
  0.0144323 -0.0051036
  0.0463206 -0.0166424
  0.1206682 -0.0445623
  0.2359684 -0.0904782
  0.3193817 -0.1282587
  0.2767760 -0.1148570
  0.1474524  0.0147233
  0.0305124  0.2849909
  0.0007844  0.4666819
  0.0005794  0.3187568
 -0.0000538  0.0566002
    2
  -20.066819    0.000272
    0.000272   -2.027899
* D-type functions
    9    1
 1.8217040D+02 5.2710580D+01 1.9604460D+01 8.0720930D+00 3.5509370D+00
 1.5942780D+00 7.0512720D-01 3.0065250D-01 1.1757850D-01
  0.0006917
  0.0061575
  0.0288287
  0.0910181
  0.2064715
  0.3182954
  0.3523154
  0.2597313
  0.0893638
    1
   -0.503314
*
******************************************************************************
/Cr.ANO-DK3.Tsuchiya.20s15p9d.4s2p1d.
Takashi Tsuchiya, Minori Abe, Takahito Nakajima and Kimihoko Hirao,
J. Chem. Phys., 115, 4463 (2001)
******************************************************************************
*                                                                            *
* CHROMIUM: Cr                                                               *
* ============                                                               *
*   Reference state:                                                         *
*        The atomic ground state, Cr(7S)                                     *
*   Relativistic effect:                                                     *
*        The scalar relativistic third-order Douglas-Kroll(DK3) method       *
*   Primitive functions:                                                     *
*        Optimized by the total energy minimization in DK3-SCF               *
*   Contraction:                                                             *
*        Taken from the DK3-SCF orbital coefficients                         *
*                                                                            *
******************************************************************************
Options
FockOperator
EndOptions
  24.000000            2
* S-type functions
   20    4
 1.6720450D+07 1.8562330D+06 3.4011640D+05 8.2251290D+04 2.3952950D+04
 8.0388140D+03 3.0359990D+03 1.2503650D+03 5.4681130D+02 2.4851830D+02
 1.1646040D+02 5.5596390D+01 2.5628230D+01 1.2574520D+01 6.1323280D+00
 2.7638940D+00 1.2698890D+00 5.4046700D-01 9.1330410D-02 3.4052700D-02
  0.0000471 -0.0000143 -0.0000052 -0.0000011
  0.0001798 -0.0000546 -0.0000198 -0.0000042
  0.0005523 -0.0001679 -0.0000609 -0.0000130
  0.0015394 -0.0004690 -0.0001701 -0.0000363
  0.0041428 -0.0012671 -0.0004599 -0.0000982
  0.0108897 -0.0033532 -0.0012176 -0.0002599
  0.0277808 -0.0086807 -0.0031590 -0.0006755
  0.0672240 -0.0216151 -0.0078864 -0.0016821
  0.1471773 -0.0503509 -0.0185210 -0.0039717
  0.2683300 -0.1039462 -0.0387592 -0.0082744
  0.3443893 -0.1714009 -0.0660755 -0.0142974
  0.2361835 -0.1642448 -0.0663939 -0.0141777
  0.0503842  0.0903173  0.0405094  0.0083708
 -0.0010548  0.5162264  0.3013920  0.0696024
  0.0015199  0.4740258  0.4329847  0.1021426
 -0.0006303  0.0852951 -0.1336415 -0.0360796
  0.0002138 -0.0009271 -0.7323157 -0.2387455
 -0.0000798  0.0016023 -0.3925467 -0.2259877
  0.0000148 -0.0000439 -0.0101224  0.6048813
 -0.0000064  0.0001671  0.0033090  0.5363814
    4
 -222.022403   -0.003316   -0.001203   -0.000217
   -0.003316  -26.558568    0.000361    0.006828
   -0.001203    0.000361   -3.341003    0.002258
   -0.000217    0.006828    0.002258   -0.226126
* P-type functions
   15    2
 4.5934300D+04 8.1994210D+03 2.2710960D+03 7.8380960D+02 3.0984540D+02
 1.3463880D+02 6.2371660D+01 3.0305360D+01 1.5543660D+01 8.5085540D+00
 4.7615840D+00 2.4401090D+00 1.1984680D+00 5.6275310D-01 2.3645220D-01
  0.0000339 -0.0000119
  0.0001915 -0.0000672
  0.0009735 -0.0003419
  0.0044058 -0.0015544
  0.0168371 -0.0059818
  0.0532146 -0.0192524
  0.1362602 -0.0507549
  0.2574451 -0.0999046
  0.3271364 -0.1332469
  0.2574515 -0.1030230
  0.1204867  0.0548031
  0.0213257  0.3250315
  0.0005605  0.4515668
  0.0005455  0.2795294
  0.0000088  0.0488011
    2
  -22.197375   -0.000001
   -0.000001   -2.062152
* D-type functions
    9    1
 2.3690590D+02 6.1089050D+01 2.1340960D+01 8.3996820D+00 3.5756720D+00
 1.5447120D+00 6.5044710D-01 2.6032020D-01 9.6010580D-02
  0.0005346
  0.0059125
  0.0308068
  0.1010658
  0.2233451
  0.3259470
  0.3419610
  0.2604911
  0.1046237
    1
   -0.366690
*
******************************************************************************
/Mn.ANO-DK3.Tsuchiya.20s15p9d.4s2p1d.
Takashi Tsuchiya, Minori Abe, Takahito Nakajima and Kimihoko Hirao,
J. Chem. Phys., 115, 4463 (2001)
******************************************************************************
*                                                                            *
* MANGANESE: Mn                                                              *
* =============                                                              *
*   Reference state:                                                         *
*        The atomic ground state, Mn(6S)                                     *
*   Relativistic effect:                                                     *
*        The scalar relativistic third-order Douglas-Kroll(DK3) method       *
*   Primitive functions:                                                     *
*        Optimized by the total energy minimization in DK3-SCF               *
*   Contraction:                                                             *
*        Taken from the DK3-SCF orbital coefficients                         *
*                                                                            *
******************************************************************************
Options
FockOperator
EndOptions
  25.000000            2
* S-type functions
   20    4
 1.6703496D+07 1.8690115D+06 3.3922763D+05 8.1300736D+04 2.3685419D+04
 7.9841759D+03 3.0263726D+03 1.2520832D+03 5.4709397D+02 2.4825246D+02
 1.1646300D+02 5.5811828D+01 2.5818830D+01 1.2574694D+01 6.1616307D+00
 2.7822694D+00 1.3119202D+00 5.8899907D-01 1.0974191D-01 3.9630428D-02
  0.0000527 -0.0000161 -0.0000059 -0.0000013
  0.0002007 -0.0000614 -0.0000226 -0.0000049
  0.0006239 -0.0001911 -0.0000704 -0.0000153
  0.0017425 -0.0005349 -0.0001970 -0.0000429
  0.0046478 -0.0014326 -0.0005281 -0.0001152
  0.0121429 -0.0037724 -0.0013908 -0.0003028
  0.0306614 -0.0096711 -0.0035768 -0.0007819
  0.0734987 -0.0239377 -0.0088695 -0.0019284
  0.1597448 -0.0555700 -0.0208055 -0.0045656
  0.2830528 -0.1129559 -0.0428541 -0.0093168
  0.3425709 -0.1781535 -0.0703090 -0.0156202
  0.2120555 -0.1515363 -0.0624158 -0.0134322
  0.0383719  0.1439716  0.0665615  0.0140057
 -0.0007349  0.5543673  0.3512377  0.0845202
  0.0010021  0.4161343  0.3987954  0.0939752
 -0.0004399  0.0610282 -0.2341294 -0.0608959
  0.0001433 -0.0004735 -0.7150115 -0.2500138
 -0.0000580  0.0012518 -0.3393328 -0.2156474
  0.0000099 -0.0000984 -0.0078411  0.6153530
 -0.0000040  0.0000413  0.0021158  0.5383739
    4
 -242.474883   -0.004217   -0.001560   -0.000332
   -0.004217  -29.524945    0.000466    0.000102
   -0.001560    0.000466   -3.880453    0.000038
   -0.000332    0.000102    0.000038   -0.250582
* P-type functions
   15    2
 4.8651154D+04 8.3673813D+03 2.2852910D+03 7.8635173D+02 3.1087259D+02
 1.3469393D+02 6.2347613D+01 3.0315353D+01 1.5400319D+01 8.2292547D+00
 4.6458324D+00 2.5983347D+00 2.8611961D-01 6.6928457D-01 1.3704745D+00
  0.0000381 -0.0000136
  0.0002223 -0.0000798
  0.0011356 -0.0004083
  0.0051049 -0.0018421
  0.0193966 -0.0070642
  0.0609988 -0.0226325
  0.1518874 -0.0582640
  0.2779307 -0.1110371
  0.3424719 -0.1450598
  0.2369864 -0.0827353
  0.0831312  0.0956998
  0.0153381  0.3040468
  0.0000044  0.0507142
  0.0004670  0.2848719
  0.0009170  0.4277392
    2
  -24.881134    0.000002
    0.000002   -2.489300
* D-type functions
    9    1
 2.0113773D+02 5.9697767D+01 2.2712206D+01 9.5508116D+00 4.2791942D+00
 1.9492770D+00 8.7236600D-01 3.7511423D-01 1.4742170D-01
  0.0009339
  0.0077492
  0.0345769
  0.1052406
  0.2245933
  0.3259549
  0.3400561
  0.2363987
  0.0762480
    1
   -0.625660
*
******************************************************************************
/Fe.ANO-DK3.Tsuchiya.20s15p9d.4s2p1d.
Takashi Tsuchiya, Minori Abe, Takahito Nakajima and Kimihoko Hirao,
J. Chem. Phys., 115, 4463 (2001)
******************************************************************************
*                                                                            *
* IRON: Fe                                                                   *
* ========                                                                   *
*   Reference state:                                                         *
*        The atomic ground state, Fe(5D)                                     *
*   Relativistic effect:                                                     *
*        The scalar relativistic third-order Douglas-Kroll(DK3) method       *
*   Primitive functions:                                                     *
*        Optimized by the total energy minimization in DK3-SCF               *
*   Contraction:                                                             *
*        Taken from the DK3-SCF orbital coefficients                         *
*                                                                            *
******************************************************************************
Options
FockOperator
EndOptions
  26.000000            2
* S-type functions
   20    4
 6.7207850D+07 7.3135460D+06 1.2898560D+06 2.9729780D+05 8.2030030D+04
 2.5799180D+04 8.9567480D+03 3.3595960D+03 1.3419500D+03 5.6458810D+02
 2.4837920D+02 1.1350840D+02 5.3094010D+01 2.2315200D+01 1.0716860D+01
 5.1957180D+00 1.9301770D+00 7.7996100D-01 1.1510950D-01 4.1661070D-02
  0.0000212 -0.0000065 -0.0000024 -0.0000005
  0.0000811 -0.0000250 -0.0000093 -0.0000020
  0.0002492 -0.0000768 -0.0000285 -0.0000061
  0.0006823 -0.0002106 -0.0000782 -0.0000168
  0.0017707 -0.0005472 -0.0002030 -0.0000437
  0.0045453 -0.0014121 -0.0005257 -0.0001133
  0.0118420 -0.0036992 -0.0013713 -0.0002949
  0.0310291 -0.0098732 -0.0036935 -0.0007968
  0.0781768 -0.0256089 -0.0095256 -0.0020494
  0.1743636 -0.0616896 -0.0234362 -0.0050658
  0.3072753 -0.1255276 -0.0477819 -0.0103101
  0.3482206 -0.1939528 -0.0787509 -0.0171721
  0.1812587 -0.1192633 -0.0478459 -0.0103718
  0.0215933  0.3033789  0.1471075  0.0327267
 -0.0018977  0.5961314  0.4670941  0.1111345
  0.0008404  0.2615257  0.1804353  0.0413527
 -0.0003050  0.0173232 -0.7192310 -0.2155730
  0.0000722 -0.0006059 -0.5390794 -0.2859161
 -0.0000177  0.0002930 -0.0161011  0.6204468
  0.0000080 -0.0001272  0.0052602  0.5204731
    4
 -263.668065   -0.005316   -0.001955   -0.000431
   -0.005316  -32.434430    0.000598    0.000129
   -0.001955    0.000598   -4.247613    0.000048
   -0.000431    0.000129    0.000048   -0.261433
* P-type functions
   15    2
 4.8583310D+04 8.3660940D+03 2.2846350D+03 7.8575470D+02 3.1094600D+02
 1.3469170D+02 6.2344850D+01 3.0292930D+01 1.5392230D+01 8.2282760D+00
 4.6525990D+00 2.5794920D+00 1.3636890D+00 6.7283420D-01 2.8677540D-01
  0.0000445  0.0000162
  0.0002591  0.0000941
  0.0013228  0.0004813
  0.0059077  0.0021599
  0.0222610  0.0082166
  0.0692127  0.0260953
  0.1682640  0.0656717
  0.2969947  0.1212407
  0.3425795  0.1475305
  0.2120654  0.0601550
  0.0648653 -0.1366533
  0.0105493 -0.3371165
  0.0006646 -0.4110363
  0.0004086 -0.2407737
  0.0000116 -0.0367959
    2
  -27.502454    0.000004
    0.000004   -2.755708
* D-type functions
    9    1
 2.7306550D+02 8.0264000D+01 3.0241020D+01 1.2616500D+01 5.6043950D+00
 2.5257040D+00 1.1050130D+00 4.5984990D-01 1.7386000D-01
  0.0006256
  0.0055040
  0.0269166
  0.0877541
  0.2031762
  0.3190862
  0.3538002
  0.2644092
  0.0971127
    1
   -0.632378
*
******************************************************************************
/Co.ANO-DK3.Tsuchiya.20s15p9d.4s2p1d.
Takashi Tsuchiya, Minori Abe, Takahito Nakajima and Kimihoko Hirao,
J. Chem. Phys., 115, 4463 (2001)
******************************************************************************
*                                                                            *
* COBALT: Co                                                                 *
* ==========                                                                 *
*   Reference state:                                                         *
*        The atomic ground state, Co(4F)                                     *
*   Relativistic effect:                                                     *
*        The scalar relativistic third-order Douglas-Kroll(DK3) method       *
*   Primitive functions:                                                     *
*        Optimized by the total energy minimization in DK3-SCF               *
*   Contraction:                                                             *
*        Taken from the DK3-SCF orbital coefficients                         *
*                                                                            *
******************************************************************************
Options
FockOperator
EndOptions
  27.000000            2
* S-type functions
   20    4
 6.8378190D+07 7.3692460D+06 1.2954280D+06 2.9810610D+05 8.2220140D+04
 2.5822900D+04 8.9631840D+03 3.3621020D+03 1.3422380D+03 5.6471420D+02
 2.4826660D+02 1.1346470D+02 5.3267650D+01 2.2577000D+01 1.0727370D+01
 5.1267590D+00 2.0454520D+00 8.3355690D-01 1.2595560D-01 4.4890640D-02
  0.0000234 -0.0000072 -0.0000027 -0.0000006
  0.0000901 -0.0000279 -0.0000104 -0.0000022
  0.0002766 -0.0000858 -0.0000320 -0.0000068
  0.0007561 -0.0002349 -0.0000878 -0.0000186
  0.0019598 -0.0006096 -0.0002277 -0.0000483
  0.0050265 -0.0015728 -0.0005889 -0.0001250
  0.0130394 -0.0041037 -0.0015331 -0.0003251
  0.0340491 -0.0109331 -0.0041117 -0.0008732
  0.0851231 -0.0281973 -0.0105839 -0.0022461
  0.1871078 -0.0673725 -0.0257373 -0.0054746
  0.3202972 -0.1345936 -0.0519108 -0.0110614
  0.3403569 -0.1986845 -0.0813167 -0.0174320
  0.1574473 -0.0943239 -0.0386373 -0.0083555
  0.0155645  0.3627159  0.1873755  0.0416633
 -0.0010697  0.5953226  0.4897285  0.1148265
  0.0004862  0.2054382  0.1051071  0.0228290
 -0.0002124  0.0105819 -0.7365269 -0.2206909
  0.0000414  0.0005241 -0.5084853 -0.2704069
 -0.0000104  0.0000789 -0.0146631  0.6032216
  0.0000046 -0.0000305  0.0046416  0.5374524
    4
 -285.761083   -0.006629   -0.002458   -0.000525
   -0.006629  -35.462814    0.000755    0.000159
   -0.002458    0.000755   -4.619116    0.000060
   -0.000525    0.000159    0.000060   -0.271264
* P-type functions
   15    2
 4.8963140D+04 8.3456870D+03 2.2799360D+03 7.8583140D+02 3.1081170D+02
 1.3474590D+02 6.2332250D+01 3.0247970D+01 1.5390230D+01 8.2376440D+00
 4.6587240D+00 2.5684760D+00 1.3572820D+00 6.7620240D-01 2.8847480D-01
  0.0000515  0.0000189
  0.0003023  0.0001109
  0.0015284  0.0005618
  0.0067934  0.0025110
  0.0254084  0.0094856
  0.0778774  0.0297760
  0.1853264  0.0734359
  0.3145500  0.1309698
  0.3374085  0.1464179
  0.1872314  0.0337383
  0.0501796 -0.1746327
  0.0072871 -0.3623207
  0.0006082 -0.3895492
  0.0003356 -0.2014964
  0.0000196 -0.0272786
    2
  -30.232947    0.000001
    0.000001   -3.024298
* D-type functions
    9    1
 2.7537830D+02 8.0658160D+01 3.0232990D+01 1.2611280D+01 5.6161100D+00
 2.5253840D+00 1.1052020D+00 4.6148340D-01 1.7550980D-01
  0.0007648
  0.0067231
  0.0323261
  0.1021545
  0.2235739
  0.3288198
  0.3420104
  0.2422901
  0.0843201
    1
   -0.654641
*
******************************************************************************
/Ni.ANO-DK3.Tsuchiya.20s15p9d.4s2p1d.
Takashi Tsuchiya, Minori Abe, Takahito Nakajima and Kimihoko Hirao,
J. Chem. Phys., 115, 4463 (2001)
******************************************************************************
*                                                                            *
* NICKEL: Ni                                                                 *
* ==========                                                                 *
*   Reference state:                                                         *
*        The atomic ground state, Ni(3F)                                     *
*   Relativistic effect:                                                     *
*        The scalar relativistic third-order Douglas-Kroll(DK3) method       *
*   Primitive functions:                                                     *
*        Optimized by the total energy minimization in DK3-SCF               *
*   Contraction:                                                             *
*        Taken from the DK3-SCF orbital coefficients                         *
*                                                                            *
******************************************************************************
Options
FockOperator
EndOptions
  28.000000            2
* S-type functions
   20    4
 6.8573180D+07 7.3712920D+06 1.3017820D+06 2.9870850D+05 8.2337350D+04
 2.5855370D+04 8.9647770D+03 3.3641940D+03 1.3425840D+03 5.6456870D+02
 2.4827240D+02 1.1330310D+02 5.3056160D+01 2.2811340D+01 1.0677930D+01
 4.8803330D+00 2.1078690D+00 8.6988690D-01 1.3673590D-01 4.7892400D-02
  0.0000260 -0.0000081 -0.0000030 -0.0000006
  0.0000998 -0.0000311 -0.0000117 -0.0000024
  0.0003054 -0.0000953 -0.0000358 -0.0000075
  0.0008369 -0.0002615 -0.0000983 -0.0000205
  0.0021606 -0.0006764 -0.0002542 -0.0000531
  0.0055379 -0.0017444 -0.0006563 -0.0001371
  0.0143243 -0.0045411 -0.0017083 -0.0003571
  0.0371909 -0.0120448 -0.0045487 -0.0009504
  0.0924011 -0.0309554 -0.0117184 -0.0024534
  0.1998761 -0.0732205 -0.0280904 -0.0058750
  0.3316830 -0.1434797 -0.0560716 -0.0118066
  0.3316712 -0.2023988 -0.0832634 -0.0175098
  0.1346983 -0.0661230 -0.0280622 -0.0061809
  0.0102959  0.4213734  0.2314643  0.0514351
 -0.0001755  0.5882660  0.5031054  0.1157802
  0.0000809  0.1533045  0.0146660  0.0015061
 -0.0000776  0.0029894 -0.7533037 -0.2287379
  0.0000019  0.0016054 -0.4606874 -0.2485098
 -0.0000018 -0.0001215 -0.0119143  0.5921330
  0.0000008  0.0000556  0.0035431  0.5491593
    4
 -308.766645   -0.008182   -0.003069   -0.000628
   -0.008182  -38.620928    0.000940    0.000195
   -0.003069    0.000940   -5.001628    0.000074
   -0.000628    0.000195    0.000074   -0.280724
* P-type functions
   15    2
 5.1568330D+04 8.8048630D+03 2.3754010D+03 8.0317640D+02 3.1153830D+02
 1.3346270D+02 6.1712680D+01 3.0027180D+01 1.5147230D+01 7.8246240D+00
 4.1428990D+00 2.3196840D+00 1.3814930D+00 7.3143950D-01 3.1313330D-01
  0.0000561  0.0000207
  0.0003258  0.0001206
  0.0016749  0.0006212
  0.0076613  0.0028577
  0.0292808  0.0110487
  0.0889327  0.0344343
  0.2032733  0.0817895
  0.3314573  0.1404709
  0.3367252  0.1458349
  0.1626821 -0.0173033
  0.0284992 -0.2668994
  0.0031770 -0.3315429
  0.0003639 -0.3109615
  0.0003603 -0.1899092
  0.0000238 -0.0267312
    2
  -33.082568    0.000001
    0.000001   -3.301062
* D-type functions
    9    1
 2.8345150D+02 8.0785470D+01 3.0181000D+01 1.2622230D+01 5.6207420D+00
 2.5242870D+00 1.1048470D+00 4.6236340D-01 1.7701300D-01
  0.0009097
  0.0082087
  0.0382133
  0.1172322
  0.2426282
  0.3348851
  0.3298841
  0.2218121
  0.0728789
    1
   -0.671688
*
******************************************************************************
/Cu.ANO-DK3.Tsuchiya.20s15p9d.4s2p1d.
Takashi Tsuchiya, Minori Abe, Takahito Nakajima and Kimihoko Hirao,
J. Chem. Phys., 115, 4463 (2001)
******************************************************************************
*                                                                            *
* COPPER: Cu                                                                 *
[...]
    0.000034    0.000143    0.000083    0.000043   -1.197747
* D-type functions
   18    3
 3.8539209D+04 9.6431755D+03 3.3228183D+03 1.3645113D+03 6.2803495D+02
 3.1270424D+02 1.6378220D+02 8.8714393D+01 4.9013840D+01 2.7359405D+01
 1.5604610D+01 9.0416825D+00 5.4718791D+00 3.7119397D+00 2.4441302D+00
 1.3967653D+00 7.3719247D-01 3.0859683D-01
  0.0001572  0.0000916 -0.0000432
  0.0009849  0.0005755 -0.0002712
  0.0048512  0.0028517 -0.0013469
  0.0195417  0.0115731 -0.0054708
  0.0631208  0.0379232 -0.0180125
  0.1589550  0.0970537 -0.0462162
  0.2927623  0.1779005 -0.0848120
  0.3566807  0.1922102 -0.0874898
  0.2392393 -0.0155796  0.0336759
  0.0732026 -0.3453459  0.2281205
  0.0072275 -0.4498662  0.2856488
  0.0006167 -0.2352950 -0.0063225
 -0.0002833 -0.0491004 -0.2999511
  0.0001262 -0.0089536 -0.2881490
 -0.0000946 -0.0005909 -0.3431305
  0.0000038 -0.0003476 -0.1780763
 -0.0000085  0.0000295 -0.0381959
 -0.0000005 -0.0000166 -0.0028055
    3
 -175.862943    0.000124   -0.000049
    0.000124  -40.216948   -0.000023
   -0.000049   -0.000023   -6.015989
* F-type functions
   13    2
 2.1091038D+03 7.0804495D+02 3.0016793D+02 1.4541138D+02 7.5355015D+01
 4.0217323D+01 2.1415664D+01 1.1331146D+01 5.8433329D+00 2.8704904D+00
 1.3291926D+00 5.6835306D-01 2.1330351D-01
 -0.0003455  0.0001290
 -0.0030744  0.0011454
 -0.0168129  0.0063130
 -0.0598134  0.0224355
 -0.1550036  0.0586030
 -0.2895853  0.1049305
 -0.3699927  0.1182387
 -0.2750585  0.0061803
 -0.0934759 -0.2336967
 -0.0095960 -0.3953494
 -0.0007219 -0.3603107
 -0.0002228 -0.2181243
 -0.0001012 -0.0748662
    2
  -23.293336    0.027460
    0.027460   -0.488165
*
******************************************************************************
/No.ANO-DK3.Tsuchiya.35s26p18d13f.7s5p3d2f.
Takashi Tsuchiya, Minori Abe, Takahito Nakajima and Kimihoko Hirao,
J. Chem. Phys., 115, 4463 (2001)
******************************************************************************
*                                                                            *
* NOBELIUM: No                                                               *
* ============                                                               *
*   Reference state:                                                         *
*        The atomic ground state, No(1S)                                     *
*   Relativistic effect:                                                     *
*        The scalar relativistic third-order Douglas-Kroll(DK3) method       *
*   Primitive functions:                                                     *
*        Optimized by the total energy minimization in DK3-SCF               *
*   Contraction:                                                             *
*        Taken from the DK3-SCF orbital coefficients                         *
*                                                                            *
******************************************************************************
Options
FockOperator
EndOptions
 102.000000            3
* S-type functions
   35    7
 3.2489842D+12 3.0419762D+11 4.5797007D+10 9.0175846D+09 2.2175415D+09
 6.6548830D+08 2.3511209D+08 9.3565629D+07 3.4428209D+07 1.1470997D+07
 3.8000470D+06 1.3034368D+06 4.7067372D+05 1.8044847D+05 7.4289263D+04
 3.2768456D+04 1.5141261D+04 7.2414792D+03 3.5859565D+03 1.8122793D+03
 9.1843375D+02 4.7184691D+02 2.4587404D+02 1.2100148D+02 7.0281008D+01
 3.8977150D+01 2.1318029D+01 1.2028101D+01 6.4154817D+00 3.3461427D+00
 1.3207744D+00 7.6640180D-01 3.6074458D-01 8.0611525D-02 3.1110764D-02
  0.0000049 -0.0000022  0.0000011  0.0000006 -0.0000003 -0.0000001  0.0000000
  0.0000186 -0.0000083  0.0000041  0.0000022 -0.0000011 -0.0000005  0.0000001
  0.0000524 -0.0000234  0.0000116  0.0000062 -0.0000032 -0.0000014  0.0000004
  0.0001257 -0.0000560  0.0000277  0.0000147 -0.0000076 -0.0000034  0.0000008
  0.0002562 -0.0001139  0.0000563  0.0000299 -0.0000155 -0.0000069  0.0000017
  0.0004614 -0.0002047  0.0001012  0.0000536 -0.0000279 -0.0000124  0.0000031
  0.0007416 -0.0003284  0.0001623  0.0000860 -0.0000447 -0.0000199  0.0000049
  0.0012502 -0.0005530  0.0002732  0.0001448 -0.0000752 -0.0000335  0.0000082
  0.0026051 -0.0011512  0.0005687  0.0003014 -0.0001566 -0.0000696  0.0000172
  0.0052117 -0.0023028  0.0011376  0.0006030 -0.0003132 -0.0001393  0.0000343
  0.0098060 -0.0043390  0.0021443  0.0011366 -0.0005904 -0.0002626  0.0000647
  0.0176393 -0.0078365  0.0038756  0.0020546 -0.0010674 -0.0004747  0.0001170
  0.0304036 -0.0136127  0.0067424  0.0035759 -0.0018578 -0.0008263  0.0002037
  0.0499418 -0.0226636  0.0112519  0.0059711 -0.0031030 -0.0013803  0.0003402
  0.0773401 -0.0358287  0.0178599  0.0094880 -0.0049311 -0.0021934  0.0005406
  0.1153996 -0.0551528  0.0276408  0.0147037 -0.0076480 -0.0034029  0.0008390
  0.1672644 -0.0835411  0.0422543  0.0225343 -0.0117202 -0.0052139  0.0012847
  0.2222269 -0.1182372  0.0604588  0.0323260 -0.0168497 -0.0075016  0.0018503
  0.2511668 -0.1420297  0.0736682  0.0395581 -0.0205869 -0.0091592  0.0022556
  0.2135407 -0.1087861  0.0532849  0.0280494 -0.0146263 -0.0065137  0.0016094
  0.0984049  0.0850400 -0.0760530 -0.0462174  0.0251551  0.0113264 -0.0028022
  0.0126782  0.4078644 -0.3663495 -0.2278336  0.1234459  0.0555095 -0.0136966
  0.0010171  0.4792996 -0.5210840 -0.3441637  0.1919365  0.0869841 -0.0215056
 -0.0007776  0.1707142  0.0504091  0.0868262 -0.0610406 -0.0293154  0.0073064
  0.0007035 -0.0180056  0.7613261  0.9324645 -0.6154391 -0.2911202  0.0724253
 -0.0005438  0.0150418  0.4456182  0.6044373 -0.4304336 -0.2112785  0.0527611
  0.0003920 -0.0093647  0.0582993 -0.7518474  0.8211697  0.4477376 -0.1135367
 -0.0002453  0.0055057 -0.0010630 -0.8032014  1.2495880  0.7618933 -0.1969406
  0.0001277 -0.0027921  0.0010739 -0.1146105 -0.5770524 -0.5508870  0.1504703
 -0.0000573  0.0012405 -0.0006487 -0.0011442 -1.0741209 -1.0809896  0.3040047
  0.0000295 -0.0006360  0.0002737 -0.0003584 -0.1596401  0.1792798 -0.0620240
 -0.0000192  0.0004126 -0.0001764  0.0000964  0.0400530  0.8553697 -0.3397984
  0.0000051 -0.0001109  0.0000508  0.0000204 -0.0085133  0.3883299 -0.2948199
 -0.0000010  0.0000209 -0.0000093 -0.0000031  0.0013394  0.0086320  0.5963374
  0.0000004 -0.0000080  0.0000036  0.0000015 -0.0005029 -0.0018653  0.5986619
    7
-5501.037608   -14.347794    6.832504    3.587434   -1.858252   -0.826521    0.203597
  -14.347794 -1080.923445   -2.592701   -1.363893    0.707068    0.314237   -0.077486
    6.832504    -2.592701 -285.147862    0.655692   -0.339932   -0.151075    0.037250
    3.587434    -1.363893    0.655692  -78.580525   -0.178905   -0.079522    0.019604
   -1.858252     0.707068   -0.339932   -0.178905  -18.794549    0.041226   -0.010166
   -0.826521     0.314237   -0.151075   -0.079522    0.041226   -2.783999   -0.004507
    0.203597    -0.077486    0.037250    0.019604   -0.010166   -0.004507   -0.206289
* P-type functions
   26    5
 4.8036783D+08 6.7913052D+07 1.3747703D+07 3.3758987D+06 9.6669786D+05
 3.1408191D+05 1.1204526D+05 4.2893582D+04 1.7545411D+04 7.6096362D+03
 3.4612270D+03 1.6497869D+03 8.2307748D+02 4.2658298D+02 2.2712643D+02
 1.2297752D+02 6.8659038D+01 3.8491088D+01 2.1202050D+01 1.1948102D+01
 6.5742798D+00 3.4965427D+00 1.7776097D+00 8.2803544D-01 3.7302744D-01
 1.5022828D-01
  0.0000119 -0.0000064 -0.0000034 -0.0000017  0.0000007
  0.0000370 -0.0000199 -0.0000107 -0.0000054  0.0000021
  0.0001000 -0.0000539 -0.0000289 -0.0000146  0.0000056
  0.0002482 -0.0001340 -0.0000719 -0.0000363  0.0000138
  0.0005737 -0.0003105 -0.0001667 -0.0000841  0.0000321
  0.0012816 -0.0006960 -0.0003739 -0.0001887  0.0000720
  0.0028770 -0.0015697 -0.0008443 -0.0004263  0.0001628
  0.0065295 -0.0035855 -0.0019316 -0.0009753  0.0003724
  0.0148568 -0.0082341 -0.0044473 -0.0022482  0.0008591
  0.0340581 -0.0191319 -0.0103670 -0.0052416  0.0020016
  0.0765432 -0.0438994 -0.0239253 -0.0121283  0.0046388
  0.1564957 -0.0924706 -0.0507798 -0.0257609  0.0098409
  0.2664190 -0.1633283 -0.0906937 -0.0462478  0.0177256
  0.3312263 -0.2017494 -0.1113252 -0.0564195  0.0215043
  0.2447435 -0.0632823 -0.0150644 -0.0049108  0.0017741
  0.0793134  0.2965162  0.2620545  0.1516975 -0.0601375
  0.0062039  0.5029246  0.4608707  0.2657189 -0.1038179
  0.0006280  0.2820459  0.0765676  0.0086530 -0.0016413
 -0.0004311  0.0473504 -0.5751273 -0.5273190  0.2349473
  0.0001795  0.0006729 -0.5242062 -0.5034150  0.2153425
 -0.0001008  0.0002063 -0.1159481  0.4098443 -0.2598486
  0.0000603 -0.0002246 -0.0045792  0.7136836 -0.4794968
 -0.0000240  0.0000359 -0.0004938  0.2293275  0.0056331
  0.0000102 -0.0000183  0.0001111  0.0131860  0.5623282
 -0.0000039  0.0000067 -0.0000309  0.0010092  0.5061029
  0.0000010 -0.0000018  0.0000036 -0.0002087  0.1040648
    5
 -871.628490   -0.001110   -0.000398   -0.000181    0.000050
   -0.001110 -227.527863   -0.000830   -0.000443    0.000170
   -0.000398   -0.000830  -59.506178   -0.000254    0.000100
   -0.000181   -0.000443   -0.000254  -12.551662    0.000050
    0.000050    0.000170    0.000100    0.000050   -1.216405
* D-type functions
   18    3
 3.6197145D+04 9.0682083D+03 3.1480221D+03 1.2939016D+03 5.9147639D+02
 2.9134083D+02 1.5177063D+02 8.3258294D+01 4.7915869D+01 2.8754443D+01
 1.7661784D+01 1.0635773D+01 6.1604910D+00 3.7437625D+00 2.4013063D+00
 1.3837302D+00 6.5282376D-01 1.3445144D-01
  0.0001829 -0.0001070  0.0000507
  0.0011410 -0.0006693  0.0003173
  0.0055690 -0.0032899  0.0015624
  0.0224704 -0.0133675  0.0063591
  0.0731241 -0.0442250  0.0211273
  0.1816550 -0.1114098  0.0534036
  0.3137096 -0.1904862  0.0911139
  0.3378728 -0.1719420  0.0769061
  0.2024587  0.0388483 -0.0463550
  0.0677533  0.2863682 -0.1886539
  0.0103179  0.4099714 -0.2733449
  0.0011411  0.2900444 -0.0765050
 -0.0003578  0.0849132  0.3001137
  0.0001926  0.0060721  0.3817096
 -0.0001635  0.0021584  0.3017591
  0.0000289 -0.0001789  0.1726080
 -0.0000129  0.0000855  0.0293887
  0.0000004 -0.0000027  0.0005581
    3
 -180.720356   -0.000124    0.000046
   -0.000124  -41.580568   -0.000027
    0.000046   -0.000027   -6.237263
* F-type functions
   13    2
 2.1168731D+03 7.0922986D+02 3.0051677D+02 1.4377918D+02 7.3806840D+01
 3.9667554D+01 2.1672925D+01 1.1902688D+01 6.4125625D+00 3.3025908D+00
 1.5892106D+00 6.8635396D-01 2.5311325D-01
 -0.0003698  0.0001395
 -0.0032552  0.0012284
 -0.0179667  0.0068189
 -0.0654865  0.0248876
 -0.1663928  0.0635424
 -0.2910990  0.1062272
 -0.3521264  0.1125517
 -0.2620128  0.0087871
 -0.0990163 -0.2049442
 -0.0131514 -0.3678172
 -0.0004210 -0.3702317
 -0.0000199 -0.2471784
 -0.0000015 -0.0921750
    2
  -24.289240   -0.000002
   -0.000002   -0.512867
*
******************************************************************************
/Lr.ANO-DK3.Tsuchiya.35s26p18d13f.7s5p4d2f.
Takashi Tsuchiya, Minori Abe, Takahito Nakajima and Kimihoko Hirao,
J. Chem. Phys., 115, 4463 (2001)
******************************************************************************
*                                                                            *
* LAWRENCIUM: Lr                                                             *
* ==============                                                             *
*   Reference state:                                                         *
*        The atomic ground state, Lr(2D)                                     *
*   Relativistic effect:                                                     *
*        The scalar relativistic third-order Douglas-Kroll(DK3) method       *
*   Primitive functions:                                                     *
*        Optimized by the total energy minimization in DK3-SCF               *
*   Contraction:                                                             *
*        Taken from the DK3-SCF orbital coefficients                         *
*                                                                            *
******************************************************************************
Options
FockOperator
EndOptions
 103.000000            3
* S-type functions
   35    7
 3.9674449D+12 3.0998446D+11 4.4219987D+10 8.6642089D+09 2.1905312D+09
 6.5291003D+08 2.3171930D+08 9.5239269D+07 3.5362672D+07 1.1834136D+07
 3.8675549D+06 1.3033025D+06 4.6460724D+05 1.7850768D+05 7.4219301D+04
 3.2794928D+04 1.5070360D+04 7.2199568D+03 3.6051838D+03 1.8136838D+03
 9.0344198D+02 4.6813900D+02 2.4541320D+02 1.1580165D+02 6.9777657D+01
 3.9119662D+01 2.0896731D+01 1.2138201D+01 6.3765371D+00 3.3353146D+00
 1.3405308D+00 7.2285688D-01 3.6247974D-01 8.5177924D-02 3.1672413D-02
  0.0000051 -0.0000023  0.0000011  0.0000006 -0.0000003 -0.0000001  0.0000000
  0.0000212 -0.0000096  0.0000048  0.0000025 -0.0000013 -0.0000006  0.0000002
  0.0000595 -0.0000268  0.0000133  0.0000071 -0.0000037 -0.0000017  0.0000005
  0.0001383 -0.0000621  0.0000307  0.0000163 -0.0000085 -0.0000038  0.0000010
  0.0002758 -0.0001234  0.0000611  0.0000324 -0.0000169 -0.0000076  0.0000021
  0.0005098 -0.0002277  0.0001126  0.0000598 -0.0000312 -0.0000141  0.0000038
  0.0007760 -0.0003459  0.0001711  0.0000909 -0.0000474 -0.0000214  0.0000058
  0.0012952 -0.0005767  0.0002852  0.0001514 -0.0000790 -0.0000356  0.0000097
  0.0027056 -0.0012034  0.0005951  0.0003160 -0.0001648 -0.0000743  0.0000203
  0.0054416 -0.0024198  0.0011966  0.0006353 -0.0003314 -0.0001493  0.0000407
  0.0103962 -0.0046294  0.0022901  0.0012161 -0.0006343 -0.0002859  0.0000780
  0.0187975 -0.0084044  0.0041604  0.0022095 -0.0011527 -0.0005195  0.0001417
  0.0321745 -0.0145008  0.0071902  0.0038204 -0.0019932 -0.0008983  0.0002451
  0.0516680 -0.0236033  0.0117296  0.0062353 -0.0032538 -0.0014666  0.0004001
  0.0791841 -0.0369316  0.0184338  0.0098126 -0.0051218 -0.0023084  0.0006299
  0.1189414 -0.0572136  0.0286937  0.0152859 -0.0079828 -0.0035991  0.0009818
  0.1716991 -0.0863852  0.0437782  0.0234061 -0.0122296 -0.0055122  0.0015046
  0.2220187 -0.1187167  0.0606750  0.0324568 -0.0169780 -0.0076607  0.0020885
  0.2484202 -0.1406792  0.0731483  0.0394380 -0.0206365 -0.0092987  0.0025422
  0.2126191 -0.1032805  0.0490489  0.0254313 -0.0132272 -0.0059752  0.0016175
  0.0926437  0.1062352 -0.0913669 -0.0549621  0.0298572  0.0136423 -0.0036958
  0.0094178  0.4161545 -0.3814195 -0.2397262  0.1309320  0.0596309 -0.0163779
  0.0016116  0.4697817 -0.5032400 -0.3307498  0.1847871  0.0850121 -0.0230887
 -0.0013311  0.1644112  0.1145041  0.1464545 -0.0982251 -0.0479190  0.0126422
  0.0012599 -0.0354239  0.7475454  0.9455283 -0.6328902 -0.3028999  0.0847295
 -0.0008821  0.0220608  0.4170598  0.5134510 -0.3594900 -0.1813011  0.0480434
  0.0006217 -0.0136871  0.0515353 -0.8015280  0.9033038  0.5104528 -0.1398640
 -0.0003993  0.0083794 -0.0029390 -0.7329301  1.1565940  0.7094710 -0.2098505
  0.0001963 -0.0040337  0.0014400 -0.1143952 -0.6668407 -0.6348242  0.2018824
 -0.0000884  0.0018057 -0.0007683  0.0063186 -1.0191810 -1.0695968  0.3262351
  0.0000422 -0.0008602  0.0003081 -0.0035258 -0.1195572  0.3647951 -0.1128564
 -0.0000271  0.0005520 -0.0001934  0.0021639  0.0231658  0.8213579 -0.4568829
  0.0000088 -0.0001803  0.0000659 -0.0006705 -0.0057110  0.2899926 -0.2001377
 -0.0000016  0.0000323 -0.0000116  0.0001224  0.0007900  0.0084372  0.7816438
  0.0000006 -0.0000115  0.0000042 -0.0000438 -0.0002741 -0.0019186  0.4267255
    7
-5640.416926   -15.275854    7.276377    3.826105   -1.990440   -0.896728    0.244616
  -15.275854 -1113.023370   -2.776592   -1.463252    0.761594    0.343030   -0.093561
    7.276377    -2.776592 -294.498228    0.703871   -0.366405   -0.165029    0.045028
    3.826105    -1.463252    0.703871  -81.654159   -0.193193   -0.087006    0.023730
   -1.990440     0.761594   -0.366405   -0.193193  -19.780647    0.045327   -0.012381
   -0.896728     0.343030   -0.165029   -0.087006    0.045327   -3.063496   -0.005740
    0.244616    -0.093561    0.045028    0.023730   -0.012381   -0.005740   -0.243093
* P-type functions
   26    5
 3.7082389D+08 5.5960854D+07 1.2078576D+07 3.1161045D+06 3.0663962D+05
 9.2071816D+05 1.1134365D+05 4.3139101D+04 1.7688129D+04 7.6444766D+03
 3.4684548D+03 1.6475737D+03 8.1737833D+02 4.2257661D+02 2.2598536D+02
 1.2410979D+02 7.0043697D+01 3.9661712D+01 2.1342733D+01 1.1896995D+01
 6.4622849D+00 3.4133231D+00 1.7052642D+00 8.2660041D-01 3.8674833D-01
 1.6221806D-01
  0.0000149 -0.0000080 -0.0000043 -0.0000022  0.0000009
  0.0000432 -0.0000233 -0.0000125 -0.0000064  0.0000025
  0.0001116 -0.0000603 -0.0000324 -0.0000164  0.0000064
  0.0002701 -0.0001461 -0.0000786 -0.0000398  0.0000156
  0.0013478 -0.0007334 -0.0003950 -0.0002003  0.0000782
  0.0006136 -0.0003328 -0.0001791 -0.0000908  0.0000355
  0.0029900 -0.0016349 -0.0008816 -0.0004473  0.0001747
  0.0067395 -0.0037084 -0.0020032 -0.0010165  0.0003968
  0.0154085 -0.0085605 -0.0046349 -0.0023548  0.0009200
  0.0353691 -0.0199135 -0.0108222 -0.0054993  0.0021474
  0.0791925 -0.0455582 -0.0248900 -0.0126816  0.0049585
  0.1620285 -0.0959885 -0.0528878 -0.0269665  0.0105359
  0.2740289 -0.1685891 -0.0938159 -0.0480902  0.0188394
  0.3308159 -0.1998000 -0.1103189 -0.0561043  0.0218726
  0.2338110 -0.0498431 -0.0052023  0.0003953 -0.0003320
  0.0734748  0.3020465  0.2657667  0.1549321 -0.0627582
  0.0065318  0.4923785  0.4570145  0.2648072 -0.1060374
  0.0002507  0.2821623  0.0663690  0.0019663  0.0016800
 -0.0001875  0.0495309 -0.6026288 -0.5647143  0.2574318
  0.0000292 -0.0018687 -0.5091093 -0.4716903  0.2049053
 -0.0000139  0.0012889 -0.0982267  0.4836823 -0.3154239
  0.0000162 -0.0007687 -0.0032145  0.6934292 -0.4751643
 -0.0000047  0.0003090 -0.0003530  0.1878976  0.0663569
  0.0000024 -0.0001454  0.0000825  0.0064133  0.5843690
 -0.0000009  0.0000564 -0.0000179  0.0017111  0.4640145
  0.0000002 -0.0000140  0.0000002 -0.0004010  0.0935939
    5
 -893.309746   -0.001026   -0.000299   -0.000064    0.000074
   -0.001026 -234.153069   -0.000957   -0.000512    0.000188
   -0.000299   -0.000957  -61.696690   -0.000279    0.000108
   -0.000064   -0.000512   -0.000279  -13.233743    0.000039
    0.000074    0.000188    0.000108    0.000039   -1.389625
* D-type functions
   18    4
 3.3883219D+04 8.4622061D+03 2.9454143D+03 1.2165807D+03 5.6042849D+02
 2.8051156D+02 1.4961578D+02 8.4181768D+01 4.8470185D+01 2.7105659D+01
 1.5063187D+01 8.2071522D+00 4.3572264D+00 2.2265941D+00 1.0648062D+00
 3.9734160D-01 1.3720912D-01 4.3347259D-02
  0.0002137  0.0001256  0.0000600 -0.0000116
  0.0013466  0.0007936  0.0003792 -0.0000737
  0.0065288  0.0038728  0.0018550 -0.0003592
  0.0259096  0.0155003  0.0074336 -0.0014459
  0.0812883  0.0494247  0.0238260 -0.0046158
  0.1897276  0.1169663  0.0564986 -0.0110198
  0.3080649  0.1869001  0.0901688 -0.0173963
  0.3249765  0.1649748  0.0736073 -0.0143832
  0.2099833 -0.0513135 -0.0544220  0.0121681
  0.0649045 -0.3857388 -0.2600051  0.0521909
  0.0036298 -0.4663556 -0.2864395  0.0590150
  0.0009501 -0.1930718  0.1558441 -0.0484733
 -0.0005286 -0.0216994  0.5390371 -0.1301160
  0.0001700 -0.0010543  0.3945681 -0.0898195
 -0.0000865  0.0000320  0.1011806  0.1313288
  0.0000223 -0.0000431  0.0051765  0.3838320
 -0.0000085  0.0000136 -0.0000880  0.4862047
  0.0000026 -0.0000038  0.0000499  0.3031453
    4
 -185.906529    0.000139    0.000067    0.000031
    0.000139  -43.228382    0.000046    0.000115
    0.000067    0.000046   -6.701205    0.000918
    0.000031    0.000115    0.000918   -0.157666
* F-type functions
   13    2
 2.1242808D+03 7.0941607D+02 3.0046753D+02 1.4366872D+02 7.3742902D+01
 3.9627640D+01 2.1694527D+01 1.1940555D+01 6.4417387D+00 3.3092089D+00
 1.6026906D+00 7.1663710D-01 2.8133596D-01
 -0.0003941 -0.0001541
 -0.0034698 -0.0013592
 -0.0190554 -0.0074978
 -0.0688755 -0.0271752
 -0.1731135 -0.0684943
 -0.2972964 -0.1121598
 -0.3512684 -0.1142564
 -0.2532281  0.0014132
 -0.0916219  0.2254609
 -0.0113389  0.3830287
 -0.0003066  0.3597547
 -0.0000201  0.2181153
  0.0000014  0.0684116
    2
  -25.563832    0.000016
    0.000016   -0.764174
