************************************************************************
* This file is part of OpenMolcas.                                     *
*                                                                      *
* OpenMolcas is free software; you can redistribute it and/or modify   *
* it under the terms of the GNU Lesser General Public License, v. 2.1. *
* OpenMolcas is distributed in the hope that it will be useful, but it *
* is provided "as is" and without any express or implied warranties.   *
* For more details see the full text of the license in the file        *
* LICENSE or in <http://www.gnu.org/licenses/>.                        *
************************************************************************

#Hamiltonian X2C
#Nucleus GN_
#Contraction ANO
#AllElectron AE_

************************************************************************
* This file has been generated from Basis Set Exchange data:           *
*   https://www.basissetexchange.org                                   *
* Version: 1  (Data from Supporting Information)                       *
************************************************************************

/X.ANO-R..0s.0s.
Dummy basis
GHOST (0s) -> [0s]
     0.0   0
* s-type functions
    0    0

/H.ANO-R.Zobel.7s4p2d.7s4p2d.
J.P. Zobel, P.-O. Widmark, V. Veryazov. J. Chem. Theory Comput. 16 (2020) 278-294. doi:10.1021/acs.jctc.9b00873
HYDROGEN (7s,4p,2d) -> [7s,4p,2d]
     1.0   2
* s-type functions
    7    7
        107.20423474
         16.04351239
          3.61654671
          0.93543804
          0.30477121
          0.10685424
          0.03746361
  0.00079596720000 -0.00361608410000  0.00048843780000 -0.01498672520000  0.05006493330000 -0.11077284710000  1.25617590390000
  0.00586925230000 -0.02607679330000  0.00216479500000 -0.07582784460000  0.37247638680000 -1.36222333820000 -1.21278509400000
  0.03215265680000 -0.14385197150000  0.08283377860000 -0.65778506320000  1.02495482600000  2.05235105540000  0.84968140640000
  0.12850222870000 -0.52793269250000  0.91030920230000 -0.44264904310000 -2.51466258030000 -2.01542936570000 -0.57134648030000
  0.27573624990000 -0.52291447450000 -0.60066363300000  2.42148162360000  2.99754398940000  1.66871738120000  0.38962795200000
  0.42816551020000  0.45974465860000 -1.30519858780000 -2.78499313960000 -2.30542287750000 -1.01290330260000 -0.20865898410000
  0.29873786980000  0.50842179240000  1.43726721270000  1.29625680500000  0.94701469600000  0.34812647310000  0.06582653550000
* p-type functions
    4    4
          1.93253233
          1.05320343
          0.50662208
          0.21338213
  0.15938496940000 -0.42921487210000  1.23849226020000 -3.20743612720000
  0.09969830070000 -0.10713370090000  0.01887459100000  6.05538155740000
  0.50902607090000 -0.72710091030000 -1.92985252660000 -4.44300726500000
  0.36374702630000  1.25487948780000  1.23585491040000  1.48938449060000
* d-type functions
    2    2
          0.79635354
          0.31879429
  0.50187145460000 -1.31032811460000
  0.58178957750000  1.27685379450000

/He.ANO-R.Zobel.8s4p2d.6s4p1d.
J.P. Zobel, P.-O. Widmark, V. Veryazov. J. Chem. Theory Comput. 16 (2020) 278-294. doi:10.1021/acs.jctc.9b00873
HELIUM (8s,4p,2d) -> [6s,4p,1d]
     2.0   2
* s-type functions
    8    6
        532.15974499
         80.00496238
         18.02248870
          5.06497567
          1.59338361
          0.53030904
          0.18170023
          0.06225610
  0.00104817410000 -0.00034052730000  0.00111403870000 -0.00184908950000  0.00292483400000 -0.01764825190000
  0.00796922380000 -0.00240430620000  0.00856856720000 -0.01873842890000  0.01268572280000  0.11956185910000
  0.04049127880000 -0.01398641990000  0.04846199200000 -0.11094985620000  0.27492271270000 -1.91889261670000
  0.14780790510000 -0.04666781950000  0.23615346430000 -0.93793791940000  1.21963350880000  2.91358987200000
  0.37525052030000 -0.16702477920000  0.72015284870000  0.25062654700000 -3.14907730780000 -2.58646025790000
  0.45058410000000 -0.14820840390000 -0.24935775750000  1.78448225870000  3.66496726550000  1.78918272150000
  0.12724430510000 -0.31313987110000 -1.53490870830000 -2.29167321900000 -2.63662324280000 -0.96976123030000
  0.02089399890000  1.26097025290000  1.08433398520000  1.03257489110000  0.97350838680000  0.31391342470000
* p-type functions
    4    4
          4.09452306
          1.74477611
          0.88610328
          0.36143462
  0.15482388450000 -0.45298043870000  0.54395736320000 -2.22339632350000
  0.23769521520000 -0.07284987400000  1.26541433010000  4.63447414220000
  0.50696309770000 -0.61620930640000 -2.74830284050000 -3.71381301280000
  0.23537991980000  1.23229447810000  1.48690766830000  1.06159319210000
* d-type functions
    2    1
          1.43530328
          0.57754718
  0.81247662120000
  0.24469789070000

/Li.ANO-R.Zobel.11s5p.9s5p.
J.P. Zobel, P.-O. Widmark, V. Veryazov. J. Chem. Theory Comput. 16 (2020) 278-294. doi:10.1021/acs.jctc.9b00873
LITHIUM (11s,5p) -> [9s,5p]
     3.0   1
* s-type functions
   11    9
       2088.61150300
        329.76830147
         71.38725957
         19.99582902
          6.64708503
          2.38700521
          0.85412959
          0.29066495
          0.09486648
          0.03230800
          0.01100290
  0.00050727960000 -0.00008060220000  0.00079340980000 -0.00090962390000  0.00051017270000 -0.00042185420000  0.00020850350000 -0.00233849780000  0.02195103150000
  0.00369142020000 -0.00058632700000  0.00578013840000 -0.00941285760000  0.00796633320000 -0.02402823820000  0.00118484330000  0.01545282370000 -0.17894064020000
  0.02002763020000 -0.00321199820000  0.03484171740000 -0.04627222430000  0.02836451900000 -0.02917968060000  0.02316394550000 -0.21373757650000  2.03120677150000
  0.07516391130000 -0.01228290620000  0.17724175840000 -0.53416377660000  0.55298434790000 -1.89835265470000  0.29055028850000  0.03748507620000 -2.98948762320000
  0.19983499650000 -0.03465804670000  0.65162042300000 -0.69136193540000 -0.01584143890000  3.82376866220000 -1.24933813290000  0.32281283460000  2.69035566330000
  0.39315129550000 -0.07462698510000  0.29338792050000  1.75420381950000 -1.70638371560000 -3.72915626090000  2.66652176450000 -0.54378584460000 -1.90402305400000
  0.40101956690000 -0.12445960170000 -0.90988544140000 -0.41567012980000  2.58430568240000  2.10551285960000 -3.94009936920000  0.66628781630000  1.16101814930000
  0.07325991180000 -0.10380098670000 -0.28500485430000 -0.81890806640000 -1.35567432000000 -0.37466128930000  4.53293937490000 -0.98271258940000 -0.70230172550000
 -0.00492121460000  0.46599674070000  0.14312370810000  0.05766440560000 -0.83049154660000 -0.63940199950000 -4.04252746250000  1.87142424900000  0.52602037030000
  0.00214342040000  0.65961599020000  0.18554050300000  0.36211170210000  1.06438388560000  0.73716705340000  2.18722476540000 -2.89927941080000 -0.46303226360000
 -0.00055657680000  0.01704729980000  0.00680400950000  0.00697224540000 -0.04339566940000 -0.28948291660000 -0.31683276330000  2.14081596960000  0.26663352220000
* p-type functions
    5    5
          5.56032683
          2.56300962
          1.09000363
          0.40537766
          0.11844697
  0.01119247620000 -0.39856376650000  0.76847720610000 -0.88417117160000  2.08668063990000
 -0.01334592420000 -0.34524742960000 -0.05785533450000  0.26783624730000 -4.06378016200000
  0.07874052530000 -0.38888819900000 -0.33049852320000  1.53532152530000  3.42830027350000
 -0.01007790850000 -0.00361510510000 -0.85228976750000 -1.88112237520000 -1.59802642540000
  0.98383924980000  0.21987419390000  0.63642313140000  0.78497488670000  0.42786145630000

/Be.ANO-R.Zobel.11s7p3d2f.9s7p3d2f.
J.P. Zobel, P.-O. Widmark, V. Veryazov. J. Chem. Theory Comput. 16 (2020) 278-294. doi:10.1021/acs.jctc.9b00873
BERYLLIUM (11s,7p,3d,2f) -> [9s,7p,3d,2f]
     4.0   3
* s-type functions
   11    9
       3691.66806090
        574.05640852
        124.00283202
         34.69632525
         11.53183174
          4.16574637
          1.51489133
          0.52752984
          0.17434522
          0.05729263
          0.01882728
  0.00055363320000 -0.00010878800000  0.00015124600000 -0.00085688660000  0.00040356460000 -0.00045801740000  0.00098532670000 -0.00013220640000  0.02182239890000
  0.00394682510000 -0.00077207800000  0.00104042330000 -0.00620988620000  0.00358803570000 -0.00455828880000  0.00627781390000 -0.02979164610000 -0.17827235880000
  0.02128007190000 -0.00423359410000  0.00613321580000 -0.03703016860000  0.01822023940000 -0.02237620130000  0.05719695930000  0.01017037520000  2.04197074350000
  0.08001671100000 -0.01608299000000  0.02392134820000 -0.20060407100000  0.16211104130000 -0.25362493620000  0.41984434130000 -2.09143680310000 -2.94294469020000
  0.21305309270000 -0.04637119680000  0.08300345530000 -0.70999935740000  0.36823268350000 -0.33781417750000  0.95898395110000  4.10707262980000  2.57002345960000
  0.41111867530000 -0.10115597080000  0.10490048160000 -0.14602834990000 -0.22009578710000  0.75575638330000 -3.49176321570000 -4.14306004620000 -1.75164569110000
  0.37757847350000 -0.17138894860000  0.20775392250000  1.03433361520000 -1.38912217300000  0.44338467260000  4.46253089450000  2.83791878100000  0.99722035230000
  0.05247249330000 -0.01191848440000 -0.19782519800000  0.29213989650000  2.34508217090000 -2.22836761640000 -3.64767194930000 -1.49361719340000 -0.50561961340000
 -0.00188055780000  0.66010791890000 -1.38722108520000 -0.89844728310000 -1.12155929510000  3.12352172410000  2.43866427780000  0.68370828190000  0.24528700310000
  0.00051026890000  0.45721071470000  1.34186903090000  0.34005063070000 -0.74177598240000 -3.02682455730000 -1.44619087990000 -0.27416670130000 -0.11053713240000
 -0.00011848850000 -0.00785813310000  0.17918300000000  0.13452757530000  1.09376038490000  1.68950827410000  0.57680169210000  0.06843930420000  0.03346143230000
* p-type functions
    7    7
         21.12969131
          8.89027185
          3.48780524
          1.28729033
          0.50437998
          0.22167796
          0.09053350
  0.00191944270000 -0.09334082600000  0.05352513590000 -0.20729094200000  0.31825490510000 -0.60186754050000  1.98482516300000
  0.00304125390000 -0.29844128110000  0.14790389070000 -0.42428660040000  0.38280565160000 -0.51557796890000 -3.42121405470000
  0.02046139060000 -0.51943322460000  0.20883029200000 -0.13067218540000 -0.29596286730000  2.28257496530000  2.99884885030000
  0.04760830610000 -0.20510865000000 -0.00556688620000  0.79329585730000 -1.41973929920000 -3.06565162090000 -2.07854701990000
  0.18892904510000 -0.03459324840000 -0.30833237620000  0.69894051530000  3.13374592030000  2.85075688140000  1.40047896370000
  0.27505539450000 -0.01578968470000 -1.11881984410000 -1.68624304190000 -2.85225165320000 -1.79825641750000 -0.76146660050000
  0.62203994700000  0.28472905810000  1.31373262760000  0.86548528650000  1.10219433950000  0.58236187250000  0.22682652000000
* d-type functions
    3    3
          0.73233854
          0.33641238
          0.14089237
  0.09917739010000 -0.25058098220000  1.79707566840000
  0.26658754720000 -1.10885445320000 -2.20232057090000
  0.73711750440000  1.15394432400000  0.96675773760000
* f-type functions
    2    2
          0.45925197
          0.19865529
  0.39699805970000 -1.30685831180000
  0.68641515900000  1.18081342130000

/B.ANO-R.Zobel.12s7p3d2f.9s7p3d2f.
J.P. Zobel, P.-O. Widmark, V. Veryazov. J. Chem. Theory Comput. 16 (2020) 278-294. doi:10.1021/acs.jctc.9b00873
BORON (12s,7p,3d,2f) -> [9s,7p,3d,2f]
     5.0   3
* s-type functions
   12    9
      10431.23000000
       1617.92600000
        353.05470000
         98.16592000
         32.09312000
         11.57684000
          4.38897500
          1.68751700
          0.64207900
          0.23808300
          0.08534735
          0.03059509
  0.00030668440000 -0.00006556220000  0.00007134770000 -0.00011354450000  0.00014906710000 -0.00007401840000  0.00051101790000 -0.00129759930000  0.00303408430000
  0.00197068190000 -0.00042142470000  0.00046698290000 -0.00070429450000  0.00048730320000 -0.00009213810000  0.00386306200000  0.00425605530000 -0.05502929910000
  0.01049801760000 -0.00225788940000  0.00243661320000 -0.00400559730000  0.00654265070000 -0.00350264530000  0.01725857960000 -0.08409517410000  0.28683000490000
  0.04173764810000 -0.00909370600000  0.01024373030000 -0.01524092500000  0.00513247140000  0.00704026590000  0.11492808180000  0.19171346610000 -2.54999723440000
  0.12892618680000 -0.02929133350000  0.03168443190000 -0.05770265890000  0.12230282670000 -0.02151010430000  0.47023303790000 -2.59789016120000  3.88669523420000
  0.29623173650000 -0.07374592880000  0.08789249120000 -0.13382089060000 -0.03017639410000  0.20271895290000  1.43928880480000  5.06346640060000 -3.37701836260000
  0.43622685030000 -0.14425578550000  0.16130412930000 -0.31856786630000  1.02412546470000 -2.21072087490000 -3.62384086340000 -5.16043001750000  2.29283753130000
  0.23204919840000 -0.15356356690000  0.24440532120000 -0.21075299370000 -2.00770308930000  4.93871622860000  3.07572182050000  3.72250550880000 -1.37744839480000
  0.00581634130000  0.17336906780000 -0.76750665540000  2.48088769380000  0.71665521450000 -5.68165381200000 -1.57615505430000 -2.22982219240000  0.76521710190000
  0.00426353200000  0.67587338620000 -0.80373397030000 -2.81178749180000  1.54421663000000  4.76904198400000  0.54963312040000  1.20505274680000 -0.39350958480000
 -0.00188112180000  0.31401359170000  1.29319178700000  0.80078761970000 -2.79099093200000 -3.30019742250000 -0.06954202490000 -0.58119427350000  0.17783174030000
  0.00057461090000 -0.00742835140000  0.11888949650000  0.50561766420000  1.84066796130000  1.44771958270000 -0.04751012940000  0.19084889140000 -0.05369120040000
* p-type functions
    7    7
         22.49443000
          5.10440400
          1.49099900
          0.50520210
          0.17982510
          0.06419857
          0.02291925
  0.00514621190000 -0.00502543420000  0.01815837850000 -0.01965821630000  0.00103131130000 -0.03385277390000  1.24598794770000
  0.03336762160000 -0.01797748390000  0.07087969690000 -0.27539795930000 -0.46060796370000  1.36531722930000 -0.98539203470000
  0.13290095480000 -0.10896142820000  0.69434969330000 -0.89646212320000 -0.06211778320000 -1.95350752530000  0.62290992530000
  0.35916756000000 -0.72169009030000  0.19131492330000  1.61727360460000  0.98527806550000  1.87862016910000 -0.38420671340000
  0.49051232170000  0.15773374920000 -1.28525361270000 -1.10705652950000 -1.80705986970000 -1.51530568720000  0.21945370620000
  0.20507919930000  0.77295120100000  0.81566823000000 -0.04022368050000  2.16638293820000  1.04638143440000 -0.10961043510000
 -0.01033814170000  0.08312399450000  0.18655454650000  0.68267844960000 -1.47037040610000 -0.48485311860000  0.03808076060000
* d-type functions
    3    3
          0.67550972
          0.30774984
          0.12377580
  0.36732189650000 -0.87086520650000  1.50977756510000
  0.43381436270000  0.04705504500000 -2.33369827840000
  0.35832173930000  0.85043479440000  1.31389755580000
* f-type functions
    2    2
          0.52808868
          0.22381744
  0.79885027830000 -1.08203869280000
  0.27028736540000  1.31754098220000

/C.ANO-R.Zobel.12s7p3d2f.9s7p3d2f.
J.P. Zobel, P.-O. Widmark, V. Veryazov. J. Chem. Theory Comput. 16 (2020) 278-294. doi:10.1021/acs.jctc.9b00873
CARBON (12s,7p,3d,2f) -> [9s,7p,3d,2f]
     6.0   3
* s-type functions
   12    9
      15566.69000000
       2405.49600000
        525.67290000
        146.49690000
         47.97475000
         17.33014000
          6.58396100
          2.53985700
          0.96973270
          0.35953110
          0.12744200
          0.04517401
  0.00031898720000 -0.00007071800000  0.00007958490000 -0.00012532260000  0.00017683380000 -0.00013997950000  0.00053931360000 -0.00135377510000  0.00298309960000
  0.00195908130000 -0.00043429850000  0.00049763660000 -0.00072327380000  0.00058273900000 -0.00053507180000  0.00368104450000  0.00484434230000 -0.05554092870000
  0.01023857380000 -0.00228478480000  0.00254777800000 -0.00421183820000  0.00732514880000 -0.00554766760000  0.01759566370000 -0.08657278820000  0.28322933290000
  0.04052386950000 -0.00915458990000  0.01067024500000 -0.01494566200000  0.00640097370000 -0.00621525050000  0.10664338690000  0.22103128300000 -2.55076129790000
  0.12588396450000 -0.02973610580000  0.03321879250000 -0.06131035920000  0.13781688720000 -0.08576104660000  0.49477400920000 -2.64501965790000  3.87190666110000
  0.29331159010000 -0.07607539280000  0.09384223390000 -0.12986911500000 -0.02253257730000 -0.00301878660000  1.40762135230000  5.14220306360000 -3.34901943120000
  0.43692571670000 -0.15093548470000  0.17647882450000 -0.40596011780000  1.19484675060000 -1.49970725730000 -3.90114760820000 -5.26297358390000  2.26845660620000
  0.23623142370000 -0.15152139030000  0.24877582400000  0.00983099450000 -2.55765438330000  4.14528964450000  3.81262506190000  3.79943069070000 -1.35842383770000
  0.00793263420000  0.18688493190000 -0.85671881610000  2.24139450030000  1.48970849780000 -5.30579417730000 -2.43468808010000 -2.25782621090000  0.74726567800000
  0.00343924810000  0.66460216270000 -0.67988431110000 -2.70446133280000  0.81636965560000  4.81016341330000  1.24816086130000  1.19776192430000 -0.37638092790000
 -0.00207546360000  0.31583646570000  1.24106931150000  0.80055184690000 -2.27205162930000 -3.53298171120000 -0.53554932120000 -0.56676583280000  0.16589101320000
  0.00054197700000 -0.00738333640000  0.11042526840000  0.50186330170000  1.62987063810000  1.62152882650000  0.15292412460000  0.18538028820000 -0.04938322450000
* p-type functions
    7    7
         34.79377000
          7.96239500
          2.37594400
          0.81293870
          0.28812230
          0.10029750
          0.03491430
  0.00559102700000 -0.00679732190000  0.01579454460000 -0.02104258720000  0.00470125830000 -0.03035436360000  1.25296876980000
  0.03751577760000 -0.04370734390000  0.07905596220000 -0.20716349060000  0.29264944270000  1.44235900090000 -1.01643701030000
  0.14801343820000 -0.20133245370000  0.59507963200000 -0.89345915940000  0.49933483230000 -1.96221544310000  0.65816976100000
  0.36888329870000 -0.57481676030000  0.22056423270000  1.32393215170000 -1.62365675370000  1.69886704180000 -0.40425253820000
  0.48137002160000  0.10629100320000 -1.16294929970000 -0.47255358060000  2.24393129540000 -1.16584617270000  0.22683950800000
  0.19400505520000  0.79017763960000  0.56600627190000 -0.66580845510000 -2.15702233820000  0.65783241010000 -0.11255354830000
 -0.01411564770000  0.08423902530000  0.43000192580000  0.93896430790000  1.26872209970000 -0.24933539540000  0.04012248120000
* d-type functions
    3    3
          1.03157817
          0.46411596
          0.18218655
  0.39766664070000 -1.01541681650000  1.36313783070000
  0.43400237980000  0.32662041310000 -2.23287145660000
  0.33184977930000  0.69961041290000  1.35953405590000
* f-type functions
    2    2
          0.75441471
          0.31034620
  0.78125017730000 -1.05989655580000
  0.29671755400000  1.28284497970000

/N.ANO-R.Zobel.13s8p4d3f.10s7p4d3f.
J.P. Zobel, P.-O. Widmark, V. Veryazov. J. Chem. Theory Comput. 16 (2020) 278-294. doi:10.1021/acs.jctc.9b00873
NITROGEN (13s,8p,4d,3f) -> [10s,7p,4d,3f]
     7.0   3
* s-type functions
   13   10
      45831.05000000
       6803.94200000
       1441.54300000
        394.11230000
        128.27310000
         46.66854000
         18.09257000
          7.21535200
          2.88655900
          1.13830700
          0.43702200
          0.16175280
          0.05986878
  0.00015788200000 -0.00003631090000  0.00001154980000 -0.00004488890000  0.00006062110000 -0.00007854170000  0.00022527260000 -0.00026424180000  0.00153717240000 -0.00857507650000
  0.00089111590000 -0.00020537210000  0.00006313540000 -0.00025593570000  0.00038457260000 -0.00058623090000 -0.00019332130000 -0.00309306290000 -0.01021510240000  0.08051761610000
  0.00455538680000 -0.00104994270000  0.00034203160000 -0.00129241190000  0.00160848300000 -0.00176280260000  0.01179329040000 -0.00231827960000  0.10986647910000 -0.42068928500000
  0.01840209510000 -0.00429079520000  0.00128378900000 -0.00539719410000  0.00880611390000 -0.01490530620000 -0.02686740330000 -0.10235938010000 -0.46940748370000  2.69517727390000
  0.06098412130000 -0.01446946570000  0.00487577130000 -0.01788309490000  0.02035510750000 -0.01757402520000  0.27027661600000 -0.07219801990000  3.17820884520000 -3.75088558440000
  0.16333859510000 -0.04120708350000  0.01186034820000 -0.05386373610000  0.10292196160000 -0.20338608490000 -0.54316164010000 -2.46943199400000 -5.41359498730000  3.13228464550000
  0.33501920530000 -0.09542417300000  0.03438194490000 -0.12203594390000  0.12200138880000 -0.04782638010000  3.29682948630000  4.83613368910000  5.13817286930000 -2.16187455750000
  0.40922017610000 -0.16759806530000  0.04387111750000 -0.25805012710000  0.63932895890000 -1.48193737400000 -6.30703629090000 -4.33672029320000 -3.58756457780000  1.37170600230000
  0.15920954940000 -0.10514118500000  0.06710180010000 -0.09601367560000 -0.96457081160000  4.78296215890000  6.15536045450000  2.73336459370000  2.13668091550000 -0.81666244810000
  0.00112376500000  0.29082985640000 -0.19988662780000  1.29544159850000 -1.52279525300000 -6.10773593990000 -4.19104376450000 -1.47501085210000 -1.16690541800000  0.45439509120000
  0.00361043750000  0.63797864340000 -0.10163083550000  0.15841372510000  3.81594073320000  4.90586105950000  2.31791662080000  0.73047604240000  0.58879734670000 -0.23217969020000
 -0.00122732720000  0.23275065670000 -0.80344410170000 -2.06016330880000 -3.41233736430000 -2.78459598110000 -1.05802237970000 -0.31828644980000 -0.25905801650000  0.10270753450000
  0.00050368160000  0.00569850080000  1.56176213810000  1.17342176340000  1.32191419990000  0.90247024340000  0.31116887020000  0.09231674200000  0.07540146310000 -0.02995186400000
* p-type functions
    8    7
         87.70229000
         20.52640000
          6.32223800
          2.25564100
          0.85611830
          0.32715340
          0.12125640
          0.04494256
  0.00233742020000 -0.00241149880000  0.00519562640000 -0.01089569900000  0.00980425760000 -0.02271843080000  0.03974883800000
  0.01742542140000 -0.01987501640000  0.04590230380000 -0.05351127060000  0.00712583130000 -0.04494778540000  1.48421792860000
  0.07563112850000 -0.07565665370000  0.19619027690000 -0.56394953630000  0.62624206820000 -1.40239707190000 -1.85951248570000
  0.22236303260000 -0.31890471280000  0.78734223080000 -0.37215735520000 -0.66717687120000  2.65349835380000  1.47387606490000
  0.41230229540000 -0.48645845220000 -0.47591843250000  1.77280622660000 -0.18084667870000 -2.88238307310000 -0.96091433270000
  0.39334800300000  0.38147817010000 -0.89582520320000 -1.82103105090000  1.31477106790000  2.39091788000000  0.55240935860000
  0.11030297510000  0.68240183510000  0.89410108660000  0.62801121920000 -2.07460394650000 -1.62688852090000 -0.28192544550000
 -0.00289436960000  0.02287269350000  0.11781096400000  0.35827498800000  1.59239858270000  0.74213579970000  0.10382438540000
* d-type functions
    4    4
          2.37607713
          1.18915725
          0.54288641
          0.21898562
  0.17308879020000 -0.41877202210000  0.69275509470000 -2.06034060190000
  0.31104815000000 -0.55262528560000  0.17456901680000  3.42540696100000
  0.50572321950000  0.36333852170000 -1.53992848930000 -2.47337063910000
  0.18750276480000  0.64454323040000  1.26886837130000  0.92902240240000
* f-type functions
    3    3
          1.53069823
          0.75044444
          0.32342721
  0.54227755910000 -1.01223335740000  1.28877993140000
  0.39588902740000  0.52798486410000 -2.15171951230000
  0.21146403430000  0.64748177440000  1.38050973510000

/O.ANO-R.Zobel.13s8p4d3f.10s8p4d3f.
J.P. Zobel, P.-O. Widmark, V. Veryazov. J. Chem. Theory Comput. 16 (2020) 278-294. doi:10.1021/acs.jctc.9b00873
OXYGEN (13s,8p,4d,3f) -> [10s,8p,4d,3f]
     8.0   3
* s-type functions
   13   10
      60090.63000000
       9178.64300000
       1956.07500000
        532.33530000
        172.04650000
         62.28191000
         24.11402000
          9.63524800
          3.86729700
          1.52812000
          0.58555830
          0.21504120
          0.07897200
  0.00016920810000 -0.00003958970000  0.00001250710000 -0.00004931380000  0.00006522060000 -0.00007738030000  0.00024198670000 -0.00020650200000  0.00168242610000 -0.01954133750000
  0.00088918790000 -0.00020848330000  0.00006350040000 -0.00026163990000  0.00038510970000 -0.00058189410000  0.00005668060000 -0.00356419330000 -0.01025583080000  0.11243888890000
  0.00444853890000 -0.00104309180000  0.00033829040000 -0.00129404820000  0.00157259970000 -0.00140787710000  0.01080548630000  0.00296406550000  0.10950027330000 -0.51556686510000
  0.01797385570000 -0.00426368300000  0.00126086550000 -0.00539761040000  0.00862831010000 -0.01495549730000 -0.01725715780000 -0.12181940240000 -0.44883212490000  2.77276416840000
  0.06004764280000 -0.01449627240000  0.00487391930000 -0.01805514250000  0.01994394960000 -0.00967078400000  0.24160807400000  0.07350990540000  3.13853553600000 -3.78587323460000
  0.16207074990000 -0.04164205530000  0.01179994790000 -0.05465455450000  0.10170806650000 -0.20629196520000 -0.35966544720000 -2.71977448220000 -5.25636938770000  3.16560750660000
  0.33392897090000 -0.09707463710000  0.03505589320000 -0.12538369040000  0.12316932980000  0.00421106670000  3.01486957310000  5.22158401390000  4.93141599930000 -2.20390647810000
  0.40921409450000 -0.17002267400000  0.04315471100000 -0.26551329820000  0.65713023340000 -1.60430859380000 -6.05248512820000 -4.83482231570000 -3.45062277260000  1.40867200950000
  0.16187958180000 -0.10203100480000  0.06865752710000 -0.08630575730000 -1.01401676630000  4.91124261840000  5.92368550250000  3.16872658300000  2.06548711080000 -0.83964764810000
  0.00220275360000  0.29177775970000 -0.20699367600000  1.30257246320000 -1.44561069030000 -6.18776693610000 -3.97503526660000 -1.75338426220000 -1.12490123170000  0.46427028120000
  0.00347040470000  0.63029108660000 -0.07657181420000  0.12585977370000  3.73109335870000  4.92261833620000  2.15158828790000  0.87402369860000  0.56155271660000 -0.23452989490000
 -0.00121429300000  0.23866805680000 -0.82923397010000 -2.00572369890000 -3.34396384390000 -2.77593935110000 -0.96478156550000 -0.38029470010000 -0.24460439660000  0.10278303010000
  0.00055348960000  0.00754064790000  1.56874121190000  1.13725296640000  1.29291162660000  0.89843566540000  0.28228805910000  0.11053047900000  0.07113256340000 -0.02996754440000
* p-type functions
    8    8
        113.11180000
         26.41491000
          8.17643800
          2.92841600
          1.10453300
          0.41297850
          0.14779610
          0.05289305
  0.00254948460000 -0.00266307000000  0.00532320570000 -0.01128985590000  0.00957980260000 -0.02380492700000  0.02549775560000 -1.27106827850000
  0.01908983730000 -0.02120359350000  0.04626940430000 -0.05607434250000  0.01166056390000 -0.01854972600000 -1.54791392690000  1.09100206510000
  0.08276115590000 -0.08728090320000  0.20644781250000 -0.56793960150000  0.55649702890000 -1.45236921730000  1.88985567290000 -0.77053774670000
  0.23487134940000 -0.32418309010000  0.74614149370000 -0.35598259140000 -0.58947131680000  2.66272709010000 -1.44645552910000  0.50992306240000
  0.41606887060000 -0.44885284210000 -0.45571945370000  1.74382471340000 -0.18013830490000 -2.75486410880000  0.88700931090000 -0.30333308290000
  0.38272149730000  0.39309142670000 -0.89134842860000 -1.79329381690000  1.20132115170000  2.15993937270000 -0.47055234580000  0.15840747330000
  0.10439827820000  0.66750975550000  0.91013154520000  0.66611168270000 -1.93693057720000 -1.42220728510000  0.22188894590000 -0.07177846230000
 -0.00150881880000  0.02388351150000  0.09769060240000  0.29734184950000  1.55897886490000  0.65474244570000 -0.07703604610000  0.02316772160000
* d-type functions
    4    4
          2.91881374
          1.47086227
          0.67466607
          0.27128932
  0.21890089760000 -0.58401174500000  1.00084816300000 -1.91485266470000
  0.30846062740000 -0.37494259390000 -0.49959330230000  3.46864554360000
  0.49688555700000  0.42324340860000 -1.03287087310000 -2.73886363960000
  0.15439787470000  0.56619970360000  1.14702559000000  1.12118490190000
* f-type functions
    3    3
          2.21897757
          1.07062169
          0.43980442
  0.45594260550000 -0.96478579150000  1.28810004740000
  0.44726769410000  0.37518367220000 -2.04109038070000
  0.26489322710000  0.69464711720000  1.26132207490000

/F.ANO-R.Zobel.13s8p4d3f.10s8p4d3f.
J.P. Zobel, P.-O. Widmark, V. Veryazov. J. Chem. Theory Comput. 16 (2020) 278-294. doi:10.1021/acs.jctc.9b00873
FLUORINE (13s,8p,4d,3f) -> [10s,8p,4d,3f]
     9.0   3
* s-type functions
   13   10
      78598.25000000
      11937.49000000
       2534.68900000
        687.76570000
        221.68030000
         80.05927000
         30.94328000
         12.35365000
          4.95814100
          1.95911800
          0.74943210
          0.27347630
          0.09979460
  0.00017798970000 -0.00004232330000  0.00001256380000 -0.00005476000000  0.00006632680000 -0.00007980410000  0.00024856020000 -0.00019575710000  0.00170445870000 -0.00984742750000
  0.00090401610000 -0.00021541200000  0.00006145060000 -0.00028160630000  0.00038470220000 -0.00057455260000  0.00007098980000 -0.00379779080000 -0.00999914140000  0.09652149470000
  0.00443005210000 -0.00105576480000  0.00032301010000 -0.00135711200000  0.00148160100000 -0.00135461160000  0.01070917490000  0.00499088580000  0.10869667870000 -0.39334743510000
  0.01776384890000 -0.00428297680000  0.00117998490000 -0.00566403670000  0.00851497970000 -0.01450730220000 -0.01750813790000 -0.13001511590000 -0.44104144270000  2.62167494920000
  0.05942088370000 -0.01458196830000  0.00464741250000 -0.01875914170000  0.01798369510000 -0.00871671930000  0.23914857970000  0.13604591790000  3.11838209370000 -3.65636133800000
  0.16121394590000 -0.04213536090000  0.01104471130000 -0.05799763920000  0.10183913060000 -0.20134138150000 -0.37429470780000 -2.81900894470000 -5.16359210180000  3.06702218210000
  0.33409730820000 -0.09898937400000  0.03410380080000 -0.13207956230000  0.10470552150000  0.01896647380000  3.04988567840000  5.28020051290000  4.78839755180000 -2.13685524360000
  0.40980938490000 -0.17300513020000  0.03954241010000 -0.28944263970000  0.69981083920000 -1.63227112000000 -6.06274454480000 -4.84197629860000 -3.33057316500000  1.36719787490000
  0.16220986190000 -0.09853348710000  0.06758038790000 -0.05014685810000 -1.12126725660000  4.92685122310000  5.88894003530000  3.15791074000000  1.99053399050000 -0.81506306610000
  0.00274045590000  0.29916169020000 -0.20634195610000  1.36343653190000 -1.26629270390000 -6.20328887080000 -3.92529263350000 -1.73943379460000 -1.08201376410000  0.44943933200000
  0.00356582050000  0.62326927310000 -0.03167186220000 -0.03429851860000  3.61229552540000  4.93787931460000  2.11451252170000  0.86042980950000  0.53717703610000 -0.22554154230000
 -0.00107467720000  0.24135018440000 -0.88779753880000 -1.83589656780000 -3.32180707430000 -2.78718015130000 -0.94714754220000 -0.37160392150000 -0.23262140240000  0.09820240970000
  0.00044805230000  0.00389236730000  1.59333046580000  1.04471213680000  1.29002465330000  0.90294144180000  0.27814841590000  0.10796438200000  0.06767781340000 -0.02863707570000
* p-type functions
    8    8
        143.19590000
         33.45599000
         10.39699000
          3.73308500
          1.40412900
          0.51938790
          0.18218110
          0.06390208
  0.00265498330000 -0.00306340700000  0.00511409990000 -0.01233662930000  0.01762044070000 -0.01510940660000  0.05618211150000 -1.27090325570000
  0.01994307870000 -0.02435444680000  0.04315199680000 -0.05548810520000  0.03175250160000 -0.05010823210000 -1.57707582830000  1.05827749890000
  0.08659224170000 -0.10374856800000  0.19830985560000 -0.62882523300000  1.07829057010000 -1.02269381650000  1.95176330530000 -0.73126315800000
  0.23900074510000 -0.36561436590000  0.72127523180000 -0.26497761890000 -1.69642155780000  2.07693283210000 -1.52399131880000  0.47708066190000
  0.40689106660000 -0.41086750110000 -0.47502023470000  1.68281068960000  1.14326061200000 -2.44359708980000  0.94967792460000 -0.27924563050000
  0.38231425370000  0.43087925420000 -0.86230041000000 -1.78310813800000 -0.00143930010000  2.32654844350000 -0.51066779980000  0.14318270380000
  0.11507875640000  0.61144459590000  0.93283577610000  0.73666806580000 -1.02877761240000 -2.01951490350000  0.24737745020000 -0.06423757660000
 -0.00074023290000  0.02821403010000  0.09928283290000  0.20407028240000  1.10889597850000  1.23917549310000 -0.09066053160000  0.02097966750000
* d-type functions
    4    4
          3.79049888
          1.93485419
          0.88682786
          0.35216904
  0.22508263400000 -0.61700277990000  1.21155723700000 -1.83207938990000
  0.30232728630000 -0.30683538850000 -0.87179497890000  3.44746954680000
  0.49678119220000  0.36957723170000 -0.73783712650000 -2.81867221420000
  0.15627510730000  0.59310349140000  1.01341378050000  1.20118422810000
* f-type functions
    3    3
          2.83678286
          1.35775012
          0.55753485
  0.45786709330000 -1.06242118520000  1.18561457550000
  0.43835275730000  0.53079025530000 -1.98798743560000
  0.27712540700000  0.58743733060000  1.30870352640000

/Ne.ANO-R.Zobel.14s8p4d3f.10s8p4d3f.
J.P. Zobel, P.-O. Widmark, V. Veryazov. J. Chem. Theory Comput. 16 (2020) 278-294. doi:10.1021/acs.jctc.9b00873
NEON (14s,8p,4d,3f) -> [10s,8p,4d,3f]
    10.0   3
* s-type functions
   14   10
     196432.10000000
      29865.13000000
       6237.38100000
       1659.59400000
        527.85650000
        190.31900000
         74.46134000
         30.51357000
         12.73235000
          5.29095200
          2.15204000
          0.84522370
          0.31706810
          0.11894150
  0.00010040270000 -0.00002417460000  0.00000649390000 -0.00003197420000  0.00003990650000 -0.00004440910000  0.00006787480000 -0.00023976670000  0.00006269020000 -0.00105470680000
  0.00045183430000 -0.00010876800000  0.00003035780000 -0.00014196520000  0.00016295450000 -0.00015933380000  0.00064184110000 -0.00003300280000 -0.00456004700000 -0.00121702470000
  0.00208416760000 -0.00050315180000  0.00013040420000 -0.00067384480000  0.00090267610000 -0.00110194210000  0.00003688730000 -0.00930431830000  0.01968999050000  0.09639419260000
  0.00823484820000 -0.00199221580000  0.00057847710000 -0.00256823440000  0.00267011620000 -0.00212407860000  0.01830813040000  0.01767612290000 -0.17154756190000 -0.48425600190000
  0.02806244860000 -0.00689498420000  0.00169661720000 -0.00943731650000  0.01391751300000 -0.01884120730000 -0.02454421810000 -0.22273787340000  0.54658404180000  3.21244282800000
  0.08188758420000 -0.02065737350000  0.00634399730000 -0.02649965450000  0.02434797920000 -0.01282571710000  0.29832127130000  0.30847222880000 -3.64866168060000 -5.00913827850000
  0.19665085710000 -0.05359034930000  0.01224360750000 -0.07761306130000  0.13240863330000 -0.20057422110000 -0.39236953470000 -3.29078543700000  6.40661852870000  4.52031714450000
  0.35896946440000 -0.11463734940000  0.03900740120000 -0.15221541570000  0.11669353730000 -0.01813687130000  3.13670908950000  6.44289584260000 -6.17410793080000 -3.20149352720000
  0.36522053060000 -0.17339791380000  0.03019411740000 -0.32845355770000  0.78852131680000 -1.36029331520000 -6.72164900610000 -6.23660077000000  4.35910143320000  2.01636929290000
  0.11042961820000 -0.04657232520000  0.06114567700000  0.18782473260000 -1.85262220220000  4.83392655810000  6.91282132770000  4.21683913040000 -2.60446705780000 -1.17587096480000
  0.00167724050000  0.35633790390000 -0.24032881150000  1.36832567190000 -0.17113991250000 -6.77894317130000 -4.77641310250000 -2.36377729790000  1.40719421240000  0.63764104310000
  0.00233569870000  0.59032836370000  0.04524278840000 -0.37234317050000  2.99356227920000  5.88887674610000  2.62182961620000  1.17614354000000 -0.69472002640000 -0.31692018470000
 -0.00046857270000  0.20285054730000 -0.95908741340000 -1.59991560270000 -3.24383313260000 -3.52586638410000 -1.18069540590000 -0.50704195590000  0.29897638100000  0.13698654440000
  0.00020865250000  0.00220480020000  1.63878045420000  0.97533662840000  1.31425188640000  1.16379337290000  0.34362775580000  0.14558551950000 -0.08587329200000 -0.03944142190000
* p-type functions
    8    8
        179.16800000
         41.80090000
         13.01663000
          4.67856500
          1.75590900
          0.64505610
          0.22319430
          0.07722690
  0.00269375950000 -0.00335559160000  0.00517238690000 -0.01125582370000  0.01778145460000 -0.01061679290000  0.04821425610000 -1.27073670530000
  0.02035821090000 -0.02680859070000  0.04193392060000 -0.05211252370000  0.02313368140000 -0.12133532310000 -1.56865693560000  1.06845009860000
  0.08860997010000 -0.11712934150000  0.20622505550000 -0.56754508290000  1.07406125100000 -0.98411255170000  1.98715901230000 -0.74756798360000
  0.24116910650000 -0.39639138470000  0.69157835210000 -0.34812234020000 -1.60655596200000  2.06015953790000 -1.59673665790000  0.49062698060000
  0.40147890170000 -0.38404689790000 -0.50482347930000  1.72856229400000  0.96225545610000 -2.39072124220000  1.03351823250000 -0.28745854050000
  0.38146926600000  0.46358224880000 -0.80859921760000 -1.76818518180000  0.17791649900000  2.22736529250000 -0.59270326080000  0.14802348570000
  0.12325722060000  0.56557401880000  0.92173685980000  0.68236239410000 -1.12707415350000 -1.90486558990000  0.32529998730000 -0.06811162690000
 -0.00021847760000  0.02929306390000  0.11797792710000  0.25495584050000  1.13019945910000  1.16680024700000 -0.14330996130000  0.02372445670000
* d-type functions
    4    4
          4.85714639
          2.45560378
          1.12029771
          0.44262106
  0.22537316230000 -0.64211886630000  1.05532105750000 -1.86831517660000
  0.31132558560000 -0.29067369760000 -0.63663922560000  3.42597848420000
  0.49200106140000  0.40071734690000 -0.90415854340000 -2.71982581210000
  0.15286716300000  0.56023449270000  1.10219081050000  1.11796570310000
* f-type functions
    3    3
          3.70080304
          1.76105099
          0.72428145
  0.44070855730000 -1.04149602250000  1.19571588390000
  0.46242861880000  0.49307588010000 -1.98126480620000
  0.26582685090000  0.60608467070000  1.30282430980000

/Na.ANO-R.Zobel.16s8p4d3f.11s8p4d3f.
J.P. Zobel, P.-O. Widmark, V. Veryazov. J. Chem. Theory Comput. 16 (2020) 278-294. doi:10.1021/acs.jctc.9b00873
SODIUM (16s,8p,4d,3f) -> [11s,8p,4d,3f]
    11.0   3
* s-type functions
   16   11
     201993.95564000
      31153.81959900
       6494.50775280
       1715.38813450
        542.07329880
        194.87483927
         76.28659970
         31.32156240
         13.06802499
          5.39787573
          2.16176673
          0.82602181
          0.29767152
          0.10041543
          0.03159139
          0.00993887
  0.00012498870000 -0.00003241680000  0.00000464170000 -0.00003379960000  0.00003908050000 -0.00002648140000  0.00003875130000 -0.00007420740000  0.00007711860000 -0.00025554160000  0.00009534730000
  0.00055064260000 -0.00014290420000  0.00002048600000 -0.00014460170000  0.00015205430000 -0.00009410880000  0.00016063160000 -0.00056652450000  0.00022176300000 -0.00022526670000 -0.00465905370000
  0.00254472480000 -0.00066145380000  0.00009464420000 -0.00070811680000  0.00088398370000 -0.00063748250000  0.00084135740000 -0.00053864110000  0.00202298690000 -0.00885030950000  0.01665838690000
  0.01009382650000 -0.00263685020000  0.00037872250000 -0.00258699900000  0.00241155450000 -0.00129089880000  0.00274769380000 -0.01514427330000  0.00225707970000  0.01067785710000 -0.15893205830000
  0.03432116790000 -0.00909120580000  0.00130182950000 -0.01012304420000  0.01394641490000 -0.01076785130000  0.01278344520000  0.01093489730000  0.03724069980000 -0.20886676280000  0.43604958160000
  0.09843789460000 -0.02700713370000  0.00390750910000 -0.02538983520000  0.01902146240000 -0.00672857070000  0.02626160380000 -0.23658565950000  0.00415429200000  0.17867265790000 -3.46776193410000
  0.22703539490000 -0.06756570940000  0.00978065500000 -0.08052510820000  0.12670795610000 -0.10538294350000  0.11678775510000  0.23113751110000  0.48237069690000 -2.98148643320000  6.38102962310000
  0.38226510240000 -0.13793810190000  0.02062465050000 -0.12000914660000  0.05021747820000  0.01793856930000  0.17174942100000 -2.47460906480000  0.31807622420000  6.35524019150000 -6.35788096990000
  0.32385041780000 -0.17690298650000  0.02701692530000 -0.35531357480000  0.87072331610000 -0.81649013730000  0.69725468370000  5.49562482540000 -2.20704157430000 -6.52928075740000  4.59801914930000
  0.06887976650000  0.01912618290000 -0.00281098180000  0.31549446670000 -2.13586896190000  2.43640462500000 -3.52330501990000 -5.54255840110000  2.87722454140000  4.62691346830000 -2.77277990220000
  0.00774126760000  0.46590562800000 -0.08753194200000  1.38859427900000  0.62012895700000 -2.48018641110000  5.64484112700000  3.68828436630000 -2.45326391710000 -2.71377008840000  1.50313652010000
  0.00848348370000  0.55168622670000 -0.13824591550000 -0.92291058730000  1.73936681630000  0.59265429010000 -5.81259201410000 -1.90801618460000  1.93947969610000  1.47606026670000 -0.76865682970000
  0.00128092260000  0.10035499540000 -0.17301747480000 -0.71447980660000 -1.65650149970000  1.75856361240000  4.63099218220000  0.62401853730000 -1.76152580640000 -0.82702843770000  0.38917255620000
 -0.00004017230000 -0.00626396360000  0.36868780430000  0.13325999470000 -0.12782414030000 -2.84658722160000 -2.81613171660000  0.35592710090000  2.02200493560000  0.55455439900000 -0.21276343200000
  0.00000996900000  0.00216407960000  0.77600451320000  0.28190413730000  0.52871661070000  1.69291066590000  1.08973838500000 -1.08688317730000 -2.45521430030000 -0.46708000530000  0.13728639500000
 -0.00000231310000 -0.00057297250000  0.02593291200000  0.01418092780000  0.01972971290000 -0.14541330400000 -0.08896290630000  0.93203378080000  1.74636692960000  0.28733863520000 -0.07152281690000
* p-type functions
    8    8
        251.33976570
         58.58442958
         18.32898710
          6.64413738
          2.53860078
          0.96524049
          0.35239020
          0.12865069
  0.00222604900000 -0.00061489480000  0.00350887160000 -0.00559011980000  0.00681295570000 -0.02960941390000  0.05199053550000 -1.27131948810000
  0.01719868620000 -0.00387215940000  0.02869753910000 -0.03862657140000  0.02081053710000  0.06535729780000 -1.59017538370000  1.06896342970000
  0.07667535000000 -0.02239054950000  0.13491015580000 -0.26536733730000  0.38197931400000 -1.75025468670000  1.85936102000000 -0.75499813410000
  0.21798023360000 -0.04767557260000  0.47094633890000 -0.85506299420000  0.50427782420000  2.82499257350000 -1.38658362460000  0.50296545160000
  0.37882228060000 -0.13092575820000  0.40178760960000  1.10467886650000 -2.10696189320000 -2.53493356950000  0.84775994410000 -0.30184208520000
  0.39679426680000  0.01986228740000 -0.58300904520000  0.35824791160000  2.84371143420000  1.66914144840000 -0.44896383230000  0.15919625500000
  0.16015120330000 -0.37073659520000 -0.69465158220000 -1.29805308210000 -2.25687487160000 -0.86959003230000  0.20502680930000 -0.07252667730000
  0.00270408940000  1.22622892790000  0.54272375130000  0.66229703460000  0.89010284360000  0.29352056250000 -0.06597360610000  0.02336346190000
* d-type functions
    4    4
          5.11526850
          2.44026670
          1.08275000
          0.43058634
  0.32953695680000 -0.85359761800000  0.67181775240000 -1.69438365500000
  0.34329438220000  0.06898810270000 -0.21947962980000  3.13260309630000
  0.43738510140000  0.40593440520000 -1.13105422580000 -2.47248198610000
  0.06900062470000  0.47000064530000  1.30201690820000  0.91668185520000
* f-type functions
    3    3
          0.77578471
          4.19987978
          1.94832818
  0.19751734110000 -1.15325131360000  0.79245101350000
  0.49295732910000  0.30181820200000  1.47916464720000
  0.46941333120000  0.46086493940000 -1.87650941560000

/Mg.ANO-R.Zobel.16s9p6d5f.11s8p6d5f.
J.P. Zobel, P.-O. Widmark, V. Veryazov. J. Chem. Theory Comput. 16 (2020) 278-294. doi:10.1021/acs.jctc.9b00873
MAGNESIUM (16s,9p,6d,5f) -> [11s,8p,6d,5f]
    12.0   3
* s-type functions
   16   11
     261636.94402000
      40086.19582800
       8292.82562360
       2173.09813900
        681.56582324
        243.42662970
         94.82224557
         38.82634222
         16.20404670
          6.72194237
          2.71764309
          1.05535924
          0.38985757
          0.13629251
          0.04505157
          0.01489182
  0.00012546610000 -0.00003459860000  0.00000655930000 -0.00000848750000  0.00003526630000 -0.00003361260000  0.00003365310000 -0.00003643950000  0.00007909930000 -0.00025973620000  0.00006538980000
  0.00053657490000 -0.00014809420000  0.00002806960000 -0.00003611620000  0.00014756880000 -0.00013794920000  0.00012807800000 -0.00013860090000  0.00065341350000  0.00026006850000  0.00417817620000
  0.00243273530000 -0.00067217050000  0.00012751790000 -0.00016589110000  0.00070023830000 -0.00068104200000  0.00072811250000 -0.00079212600000  0.00022172450000 -0.01068357310000 -0.01366185920000
  0.00956353400000 -0.00265683160000  0.00050384610000 -0.00064427610000  0.00258275010000 -0.00234935400000  0.00195145180000 -0.00209248750000  0.01804988020000  0.02987700500000  0.14919292070000
  0.03259051090000 -0.00916479010000  0.00174435260000 -0.00228807040000  0.00988980050000 -0.00992587500000  0.01155351300000 -0.01269772580000 -0.02228643000000 -0.26255232950000 -0.40078021350000
  0.09430486360000 -0.02746192280000  0.00524163440000 -0.00664773390000  0.02595430040000 -0.02270943370000  0.01527202770000 -0.01623815690000  0.29296211040000  0.64140251900000  3.39058724080000
  0.22039954130000 -0.06927525040000  0.01341697760000 -0.01785816650000  0.08017732390000 -0.08424144080000  0.10882537720000 -0.12205809830000 -0.41159281730000 -3.86898527060000 -5.84767277830000
  0.37754416880000 -0.14317793070000  0.02832984780000 -0.03545985920000  0.13319485890000 -0.11361665760000  0.04914299000000 -0.06060625090000  3.15226908660000  6.97288626180000  5.35945921850000
  0.33079004220000 -0.18597877840000  0.03898937310000 -0.05760224900000  0.36081002310000 -0.55468535490000  0.89034882720000 -1.04701623180000 -6.73027315920000 -6.56519451550000 -3.62666981240000
  0.07632470100000  0.00627868330000 -0.00286832590000  0.01737132450000 -0.39526010700000  1.31525063800000 -2.86634561550000  4.01075075030000  6.85739445000000  4.41485347120000  2.11524888800000
  0.01128125820000  0.47604166020000 -0.11928105210000  0.19331466330000 -1.32003799280000  0.44915476950000  2.98670699470000 -6.04458481290000 -4.71715479920000 -2.50696647590000 -1.13717106060000
  0.01276563690000  0.55968535470000 -0.22856215430000  0.25639065840000  0.91897111880000 -2.86628734770000 -1.04991940680000  6.03375681730000  2.67401697030000  1.29808719200000  0.57871515960000
  0.00160642540000  0.08623640610000 -0.15080087050000  0.05715198620000  1.28020421510000  3.08193548210000 -1.09497151580000 -4.89617452100000 -1.37281344150000 -0.63447638010000 -0.28202808290000
  0.00001426350000 -0.00365262640000  0.66105030660000 -1.68823811940000 -1.44844293580000 -1.25913613490000  2.37471078660000  3.53559924640000  0.66434381830000  0.29569527780000  0.13131249540000
 -0.00000612110000  0.00140363600000  0.55076253680000  1.30090251040000  0.32037001280000 -0.52873972520000 -2.67041284970000 -2.35844572800000 -0.29941173640000 -0.12675037820000 -0.05599956640000
  0.00000511330000 -0.00027926440000 -0.00956244750000  0.26781672250000  0.27044484130000  0.81473594030000  1.60638274400000  1.08783010670000  0.09720318370000  0.03839140830000  0.01679110710000
* p-type functions
    9    8
        581.72949141
        134.22321974
         42.36889381
         15.73075323
          6.30890769
          2.61020765
          1.07712810
          0.42244629
          0.16568212
  0.00080830970000 -0.00018212820000  0.00129383820000 -0.00136296590000  0.00108648570000 -0.00104976100000  0.03390399210000 -0.10235153580000
  0.00665501830000 -0.00189466980000  0.01066400340000 -0.01671060490000  0.02144397610000  0.05186968800000 -0.06724886830000  1.66243376980000
  0.03262261290000 -0.00722559630000  0.05503134350000 -0.06003389920000  0.05000444940000 -0.05229377380000  1.93397303860000 -2.01194681620000
  0.11110175830000 -0.03392318230000  0.21339217170000 -0.44733925420000  0.71102720640000  1.80971535020000 -2.82710948120000  1.65326699790000
  0.25800120760000 -0.05384473780000  0.55198290600000 -0.50314087220000 -0.20501537290000 -3.66288082200000  2.37670499930000 -1.15261207470000
  0.38321741930000 -0.14259324970000  0.14652559500000  1.15689768400000 -1.71953454040000  3.95791564430000 -1.54059691150000  0.71066071630000
  0.34364407280000  0.03142870930000 -0.67998846260000  0.21743529870000  2.98393093880000 -2.93992756730000  0.82855211050000 -0.38037288060000
  0.10265644930000 -0.29510481290000 -0.54040737650000 -1.48772501210000 -2.56691298350000  1.60009751900000 -0.36882169520000  0.17100877020000
  0.00094412160000  1.19337664380000  0.55708571270000  0.85383813680000  1.05367961690000 -0.53957181700000  0.11408186290000 -0.05345213900000
* d-type functions
    6    6
         10.06598123
          4.77793365
          2.16835058
          0.85276151
          0.30239105
          0.11977549
  0.15240912520000 -0.06737481290000  0.42188292640000 -0.47131853970000  0.71818218900000 -1.83403752010000
  0.28373247400000 -0.12339544890000  0.45898036720000 -0.14115634680000 -0.13294761180000  3.32931355990000
  0.50539095930000 -0.11883246670000 -0.21181991000000  0.70345925260000 -1.29674193920000 -2.82585939740000
  0.21499880260000 -0.01337157710000 -0.71402446880000  0.02192040140000  1.88873475710000  1.56587721500000
  0.05273693540000  0.39084039000000 -0.02156565670000 -1.26242159050000 -1.59673124800000 -0.74334180670000
  0.06191537280000  0.67388793440000  0.39717636400000  1.04829974610000  0.81556485100000  0.27847563520000
* f-type functions
    5    5
          8.49719089
          3.95842570
          1.66004149
          0.47680197
          0.17891067
  0.20511132060000 -0.05917486490000  0.26141231490000 -1.09477361410000  1.17335865820000
  0.52533726800000 -0.08718262610000  0.48171889150000  0.64564172600000 -1.97166386630000
  0.40382617000000 -0.01798678120000 -0.54834531500000  0.43019857790000  1.58057469530000
  0.07319252220000  0.23394763820000 -0.75935969990000 -0.82135537420000 -0.96713555620000
 -0.01264454140000  0.83971239130000  0.68802228120000  0.49464615910000  0.49834186650000

/Al.ANO-R.Zobel.16s11p7d5f1g.11s10p7d5f1g.
J.P. Zobel, P.-O. Widmark, V. Veryazov. J. Chem. Theory Comput. 16 (2020) 278-294. doi:10.1021/acs.jctc.9b00873
ALUMINIUM (16s,11p,7d,5f,1g) -> [11s,10p,7d,5f,1g]
    13.0   4
* s-type functions
   16   11
     351795.40000000
      52846.29000000
      10836.00000000
       2826.69300000
        883.18710000
        314.05970000
        121.79130000
         49.72679000
         20.77552000
          8.68236300
          3.56560000
          1.41936300
          0.54197520
          0.19691400
          0.06762791
          0.02322605
  0.00012078780000 -0.00003588570000  0.00000777300000 -0.00000278900000  0.00001618910000 -0.00003542710000  0.00003634230000 -0.00004853760000  0.00007210500000 -0.00026530550000  0.00007118390000
  0.00050564060000 -0.00015035070000  0.00003254680000 -0.00001160900000  0.00006698290000 -0.00014565290000  0.00014746230000 -0.00017149750000  0.00066361270000  0.00017830470000  0.00410392300000
  0.00223179340000 -0.00066428220000  0.00014406280000 -0.00005199140000  0.00030369040000 -0.00066896030000  0.00069767090000 -0.00105251020000 -0.00022991940000 -0.01044285840000 -0.01434313390000
  0.00861970810000 -0.00257843440000  0.00055827320000 -0.00019770000000  0.00113233410000 -0.00244306070000  0.00241721350000 -0.00220438570000  0.01896362560000  0.02805283400000  0.15185357140000
  0.02927861610000 -0.00885280830000  0.00192872250000 -0.00070218560000  0.00414444080000 -0.00922882300000  0.00990180150000 -0.01741350720000 -0.03361645030000 -0.25481272860000 -0.44757240520000
  0.08561807080000 -0.02671642510000  0.00582631050000 -0.00204224560000  0.01160398680000 -0.02482381320000  0.02381519340000 -0.01247769950000  0.31749938330000  0.59289658730000  3.45427375620000
  0.20479577380000 -0.06846649570000  0.01525091110000 -0.00562699890000  0.03388795310000 -0.07694734810000  0.08599872530000 -0.17896389080000 -0.57451299100000 -3.79918245030000 -5.91567468720000
  0.36455299040000 -0.14447067750000  0.03288175000000 -0.01132180210000  0.06406836510000 -0.13705663650000  0.13214912750000  0.00355150420000  3.51898956830000  6.82172397130000  5.48449204290000
  0.34648536430000 -0.19762791060000  0.04859340120000 -0.01882947820000  0.13262951860000 -0.37201637530000  0.61293222960000 -1.59907814450000 -7.17701083910000 -6.38404677180000 -3.80021195600000
  0.09521197810000 -0.02802134290000  0.00488527000000  0.00163666590000 -0.06257483710000  0.36833256650000 -1.45611610510000  5.35406275810000  7.30436558300000  4.31844239520000  2.28913730790000
  0.01653791280000  0.44713012730000 -0.13301719320000  0.04083383520000 -0.42819112270000  1.48977336240000 -0.54548766710000 -7.38063504130000 -5.08873720840000 -2.50074989820000 -1.27658799180000
  0.02123398370000  0.58735210110000 -0.29515904490000  0.13095432340000 -0.37321104820000 -1.30414308950000  3.69352895180000  6.51637181990000  2.91384972640000  1.32793940710000  0.67303005340000
  0.00310441310000  0.10613161100000 -0.13154216870000  0.00776164610000  0.61120877660000 -1.27436085290000 -4.91786538500000 -4.43413694870000 -1.49332242300000 -0.66242779160000 -0.33718753750000
  0.00003875480000 -0.00477340770000  0.72985059170000 -0.22735712490000  1.52067222860000  2.62467892200000  3.89796754460000  2.51009136970000  0.70527973970000  0.31084807270000  0.15920531440000
 -0.00002449310000  0.00226295610000  0.48828318520000 -0.95093439910000 -2.53580468270000 -2.09017641550000 -2.16291889350000 -1.17986673320000 -0.29901158050000 -0.13179395600000 -0.06776206540000
  0.00001107570000 -0.00047980000000 -0.00836222290000  1.59343382930000  1.15612396660000  0.78096360300000  0.70664687820000  0.36195809030000  0.08804566600000  0.03885653510000  0.02001116210000
* p-type functions
   11   10
        633.07082727
        149.18134242
         46.06592929
         16.98353190
          6.89629314
          2.88266657
          1.17552191
          0.44970219
          0.15759066
          0.05019646
          0.01598879
  0.00095743600000 -0.00019383860000  0.00092617000000 -0.00126375060000  0.00128208120000 -0.00164652430000  0.00087932940000 -0.00046721880000  0.03046747170000 -0.08918539490000
  0.00784868120000 -0.00157280950000  0.00746176890000 -0.01101913370000  0.01322960080000 -0.01916975030000  0.01833970240000 -0.04264697930000 -0.07825228300000  1.62420987680000
  0.03972015770000 -0.00815156410000  0.04043662270000 -0.05626698220000  0.06075464420000 -0.08315798230000  0.04961308810000 -0.04764099420000  1.93668266200000 -1.93331691090000
  0.13100075600000 -0.02711781220000  0.14795243790000 -0.23808435380000  0.36480901850000 -0.63983328440000  0.65796152990000 -1.55620855570000 -2.98229689810000  1.60725702450000
  0.28236981430000 -0.06143696040000  0.34885321510000 -0.48161409100000  0.33537259440000  0.11598098360000 -0.85771277500000  3.50680093080000  2.64729140600000 -1.13905808590000
  0.40538863110000 -0.08146658190000  0.06191385420000  0.09541629910000 -0.93561049280000  1.54427250080000 -0.04309682780000 -4.00758043310000 -1.74360542220000  0.69181974150000
  0.30829927520000 -0.07434550170000 -0.23825236400000  0.92100276270000 -0.18547949610000 -2.26178649830000  1.12593058080000  3.14046509370000  0.93208027680000 -0.36030317310000
  0.05499309290000  0.12744456340000 -0.50748703240000 -0.26216301060000  1.57695179510000  1.60782366840000 -1.67394142130000 -1.94754553800000 -0.43058706890000  0.16551676120000
 -0.00051227150000  0.55252288070000 -0.31004032300000 -0.83324863690000 -1.45387437530000 -0.49630062250000  1.75099716720000  1.10180938380000  0.18273741280000 -0.07001926740000
  0.00061324100000  0.46100140040000  0.73744023870000  0.73456576100000  0.44689934210000 -0.44889118800000 -1.72425846130000 -0.65393998340000 -0.07457703850000  0.02815485660000
 -0.00017557410000  0.02177667780000  0.06128035220000  0.08254232880000  0.27215784120000  0.72982874730000  1.25969946190000  0.33996760950000  0.02484962310000 -0.00905840310000
* d-type functions
    7    7
         14.08593493
          7.11871742
          3.32046811
          1.39947951
          0.57794595
          0.24425845
          0.09241781
  0.07084998880000 -0.10011930410000  0.20349405760000 -0.29192162910000  0.42511030860000 -0.58530710930000  2.21600289620000
  0.13014059690000 -0.18910161540000  0.32714525400000 -0.36602057470000  0.25523807980000 -0.37608341320000 -3.93143260980000
  0.31096390950000 -0.40758658620000  0.14364893210000  0.09130004000000 -0.62089843470000  2.08521217240000  3.28976683450000
  0.18294477080000 -0.23433086410000 -0.37068278470000  0.77204922620000 -0.48106506510000 -2.72564448220000 -1.95471863170000
  0.15425535110000  0.07139906880000 -0.52531954200000 -0.26352518240000  1.85083290210000  2.31792274410000  1.03645113460000
  0.41036149280000  0.45812271300000 -0.05296429740000 -0.85948189920000 -1.87138721710000 -1.38889466000000 -0.46515973230000
  0.23617777760000  0.28940293350000  0.64172543760000  0.93784674750000  0.89030579760000  0.48772762180000  0.13537531780000
* f-type functions
    5    5
          6.50322883
          2.92517157
          1.13925696
          0.42005182
          0.17041755
  0.02361407430000 -0.55945184830000  0.26395152930000 -0.43784595910000  1.37234905600000
 -0.01845205350000 -0.41100905970000  0.03197264700000 -0.20452640970000 -2.01302695010000
 -0.02170688790000 -0.21905954810000 -0.16607197080000  1.38194266210000  1.31669310410000
 -0.60151947430000  0.08197499050000 -0.98655727960000 -1.27838673320000 -0.61068675710000
 -0.48821636190000  0.09797693220000  1.12122104660000  0.66540408130000  0.21022213270000
* g-type functions
    1    1
          0.37199395
  1.00000000000000

/Si.ANO-R.Zobel.16s11p7d5f1g.11s10p7d5f1g.
J.P. Zobel, P.-O. Widmark, V. Veryazov. J. Chem. Theory Comput. 16 (2020) 278-294. doi:10.1021/acs.jctc.9b00873
SILICON (16s,11p,7d,5f,1g) -> [11s,10p,7d,5f,1g]
    14.0   4
* s-type functions
   16   11
     458452.85720000
      67233.72090500
      13657.54997200
       3549.36210110
       1105.33603860
        391.15037299
        150.76131638
         61.21599627
         25.51700574
         10.70194622
          4.44475224
          1.80368850
          0.70625903
          0.26332054
          0.09202619
          0.03216164
  0.00011882940000 -0.00003624300000  0.00000849300000 -0.00001307390000  0.00003275890000 -0.00003436140000  0.00002792910000 -0.00005153930000  0.00008866370000 -0.00026303070000  0.00006535090000
  0.00049113630000 -0.00014992510000  0.00003511110000 -0.00005349520000  0.00013309980000 -0.00013930160000  0.00010561420000 -0.00020219360000  0.00062526040000  0.00001873560000  0.00425781520000
  0.00211384600000 -0.00064591000000  0.00015155780000 -0.00023591190000  0.00059565010000 -0.00062757980000  0.00054806510000 -0.00098472640000  0.00040731910000 -0.00964013130000 -0.01543511140000
  0.00802157910000 -0.00246295050000  0.00057685260000 -0.00086663800000  0.00213595610000 -0.00222253840000  0.00149364970000 -0.00300364080000  0.01616185750000  0.02272039330000  0.15344532960000
  0.02712037620000 -0.00841118630000  0.00198290650000 -0.00314209750000  0.00803420560000 -0.00854940920000  0.00826598600000 -0.01450188100000 -0.01757698200000 -0.23212850220000 -0.45886257200000
  0.08002520020000 -0.02557519990000  0.00603196900000 -0.00890264640000  0.02171418720000 -0.02248752650000  0.01233462710000 -0.02759820690000  0.26294258680000  0.46613791920000  3.44662652100000
  0.19524429120000 -0.06664069060000  0.01606365460000 -0.02619212210000  0.06843499540000 -0.07411141560000  0.08054823820000 -0.14173496050000 -0.32522721870000 -3.57012626420000 -5.97277652110000
  0.35738932650000 -0.14356116180000  0.03534064790000 -0.05094112090000  0.12334262730000 -0.13082569790000  0.05087875920000 -0.18705474890000  3.10331168120000  6.76873219770000  5.69351277450000
  0.35693065400000 -0.20347414530000  0.05423937860000 -0.10376962450000  0.33672826960000 -0.49007065110000  0.69406542420000 -1.20436319850000 -6.93953132970000 -6.70522726730000 -4.09579461730000
  0.10794552620000 -0.04790694000000  0.01099917800000  0.02756515130000 -0.25092405330000  0.83502793900000 -1.94561496720000  4.98308807800000  7.53860560590000  4.82359637440000  2.57054525270000
  0.01709909600000  0.42968913460000 -0.13977223440000  0.28025391660000 -1.31186318350000  1.46304532060000  1.23433938800000 -7.37375042480000 -5.65698510700000 -2.95190417980000 -1.49126306780000
  0.02281151190000  0.60246633120000 -0.33147741370000  0.49437107490000  0.60995125230000 -3.79592444630000  1.19032018400000  6.96160108430000  3.50192740510000  1.63823682380000  0.81217991720000
  0.00350647170000  0.11828945990000 -0.12014032500000 -0.47198109840000  1.81463769140000  3.42784349930000 -3.29664971810000 -5.16639057130000 -1.92904814790000 -0.84169516300000 -0.41480445390000
  0.00012171130000 -0.00468519300000  0.73607651320000 -1.37055285710000 -2.04520541030000 -1.17807926940000  4.05106464670000  3.32872696850000  0.97215730900000  0.39985399330000  0.19619637590000
 -0.00003562730000  0.00223860690000  0.48626017820000  1.33558433600000  0.48337927460000 -0.80866715040000 -3.62028865530000 -1.92214510180000 -0.44418503190000 -0.17026103610000 -0.08277413740000
  0.00001759490000 -0.00048925990000 -0.00984658010000  0.18108067770000  0.43533594730000  1.00492689050000  1.89403149250000  0.76533468260000  0.14399965380000  0.05077351180000  0.02432289540000
* p-type functions
   11   10
        748.51252431
        175.35979501
         54.17554575
         19.98329949
          8.11457874
          3.40228914
          1.40383407
          0.55147515
          0.20232717
          0.06888309
          0.02345152
  0.00099429290000 -0.00022708020000  0.00071886410000 -0.00145374630000  0.00114800450000 -0.00127259140000  0.00114723330000 -0.00060801720000  0.02528257630000 -0.08240996020000
  0.00813176630000 -0.00185494990000  0.00585327940000 -0.01266827400000  0.01211345670000 -0.01266500720000  0.01426415340000  0.05405160450000  0.01643949390000  1.61995313890000
  0.04123563210000 -0.00954059220000  0.03132509120000 -0.06478539950000  0.05437051370000 -0.06207846800000  0.05625225620000 -0.01741741010000  1.82804232670000 -2.04112693190000
  0.13653361410000 -0.03210003340000  0.11625411330000 -0.27772856510000  0.33804771690000 -0.40391247740000  0.48573407150000  1.82532951330000 -2.83337118280000  1.77382277660000
  0.29399143340000 -0.07146400780000  0.26467152790000 -0.55427364680000  0.27740167150000 -0.17597546050000 -0.05750041740000 -3.76832748600000  2.47861458720000 -1.28936247580000
  0.41415398670000 -0.10258520340000  0.06239750310000  0.19358202010000 -0.82185186720000  1.46309159190000 -1.53756178210000  4.00920306970000 -1.62513266620000  0.80242128720000
  0.28663298110000 -0.07809091490000 -0.11701817570000  0.91992034310000 -0.25974984510000 -1.66932912860000  2.76807428420000 -2.91430396900000  0.88580579460000 -0.43357931210000
  0.04041691440000  0.19104226710000 -0.56887281450000 -0.25713027870000  1.64785289920000  0.64191230580000 -2.91719700800000  1.63694311100000 -0.42890620600000  0.20971281190000
  0.00062883580000  0.61366523470000 -0.31506223570000 -0.72842826890000 -1.47108031010000  0.55485483150000  2.41120981690000 -0.79578029580000  0.19352660010000 -0.09395065920000
 -0.00001087110000  0.35225130950000  0.85483463740000  0.61058983720000  0.28919298140000 -1.33304173560000 -1.79506371620000  0.36894860840000 -0.08266785430000  0.03942522620000
  0.00003074440000 -0.00791377990000  0.09835290610000  0.11435592440000  0.47952671930000  1.18806312360000  0.98839584400000 -0.13892673130000  0.02744671610000 -0.01271206080000
* d-type functions
    7    7
         16.64943889
          8.39955926
          3.89351241
          1.64278756
          0.69252003
          0.30429641
          0.11856060
  0.00716162690000 -0.13171816070000  0.11980356480000 -0.37074619740000  0.33609784420000 -0.52608710420000  2.22952687080000
  0.01303034940000 -0.24835695760000  0.20846153590000 -0.44296530420000  0.24373172700000 -0.52372522040000 -3.88817850970000
  0.03556917220000 -0.51865103810000  0.17245476470000  0.13069654420000 -0.49843500660000  2.25796357850000  3.21311437250000
  0.03464448870000 -0.25926284960000 -0.13727150400000  0.89052109130000 -0.61533166500000 -2.88647986250000 -1.93578247900000
  0.17161929530000 -0.01855894790000 -0.68435193750000 -0.28818861860000  2.09455457780000  2.42743578560000  1.07893089970000
  0.53948564140000  0.14196942410000 -0.18213377980000 -0.70888160610000 -2.20545200070000 -1.41726725150000 -0.50358136040000
  0.40278775200000  0.13414532460000  0.81283308920000  0.68735747830000  1.06738629110000  0.47115487710000  0.14605591490000
* f-type functions
    5    5
         11.80274465
          5.22134974
          1.96669020
          0.61502922
          0.23979885
  0.00098495800000 -0.27234905050000  0.13993576640000 -0.29581552300000  1.45824668450000
  0.01307673370000 -0.54935297840000  0.18691138140000 -0.62417419600000 -1.72731536760000
  0.00839669760000 -0.34022334980000  0.06902222800000  1.36377080940000  0.89205101460000
  0.44209663050000 -0.05737185680000 -1.20562310710000 -0.85729635390000 -0.34199121600000
  0.66078956040000  0.21920578340000  1.06098499070000  0.39403776060000  0.12754256030000
* g-type functions
    1    1
          0.49411996
  1.00000000000000

/P.ANO-R.Zobel.16s11p7d5f1g.11s10p7d5f1g.
J.P. Zobel, P.-O. Widmark, V. Veryazov. J. Chem. Theory Comput. 16 (2020) 278-294. doi:10.1021/acs.jctc.9b00873
PHOSPHORUS (16s,11p,7d,5f,1g) -> [11s,10p,7d,5f,1g]
    15.0   4
* s-type functions
   16   11
     570424.45527000
      82219.45203500
      16587.92009500
       4299.62803100
       1336.32802690
        471.57996307
        181.14399141
         73.34807531
         30.56170168
         12.86559709
          5.39202957
          2.22009247
          0.88549812
          0.33638184
          0.11904717
          0.04213137
  0.00011998450000 -0.00003810560000  0.00000943130000 -0.00000344460000  0.00001647790000 -0.00003599480000  0.00003668490000 -0.00005361670000  0.00005914250000 -0.00027567390000  0.00014922070000
  0.00048932000000 -0.00015554000000  0.00003847770000 -0.00001394970000  0.00006639850000 -0.00014472190000  0.00014755150000 -0.00017900280000  0.00069510800000  0.00019071340000  0.00402906630000
  0.00205924440000 -0.00065518690000  0.00016237430000 -0.00005979460000  0.00028771740000 -0.00063033870000  0.00064373550000 -0.00112474520000 -0.00106216980000 -0.01066911370000 -0.01456959420000
  0.00768323780000 -0.00245627870000  0.00060778340000 -0.00021794470000  0.00102966350000 -0.00223748770000  0.00227558020000 -0.00182452190000  0.02119661140000  0.03057390220000  0.15319722720000
  0.02578682860000 -0.00832176230000  0.00207250170000 -0.00077330080000  0.00375897960000 -0.00828532090000  0.00852108730000 -0.01873920180000 -0.05489460960000 -0.25708586070000 -0.46156052390000
  0.07631646790000 -0.02535016880000  0.00632071010000 -0.00223277830000  0.01046415600000 -0.02272796120000  0.02311927650000 -0.00504917570000  0.36847590220000  0.64953167190000  3.42197280730000
  0.18832266650000 -0.06660720760000  0.01698440980000 -0.00645321790000  0.03195284040000 -0.07144670010000  0.07456468640000 -0.20502315540000 -0.88684665190000 -3.86945829400000 -5.70823166510000
  0.35076220340000 -0.14512766590000  0.03790371970000 -0.01306022790000  0.06096056930000 -0.13458911250000  0.14172611120000  0.08082717300000  4.13385824300000  6.62432495180000  5.22093348840000
  0.36212601170000 -0.20980425610000  0.05953834210000 -0.02409829380000  0.13511717110000 -0.37182342880000  0.52802009700000 -1.95709974260000 -7.86653080380000 -5.98252717130000 -3.66082400630000
  0.11737500260000 -0.06297153040000  0.01653302010000 -0.00017302080000 -0.04136793230000  0.29499824830000 -0.94046738700000  6.09847885080000  8.00268121320000  4.01267991040000  2.29050363360000
  0.01992280870000  0.41930846600000 -0.14840683960000  0.04131040860000 -0.34816719340000  1.48961984560000 -1.66362307300000 -8.24382002630000 -5.73537811900000 -2.37608266410000 -1.34513492600000
  0.02705736660000  0.61239221440000 -0.36878369040000  0.17885065640000 -0.64060673340000 -0.99067341510000  5.02693524820000  7.11442984970000  3.39923590980000  1.30668515360000  0.74444426600000
  0.00440054290000  0.12532587170000 -0.10103459910000 -0.03678236360000  0.86154655020000 -1.88932842560000 -5.96849305380000 -4.63822508870000 -1.78223595200000 -0.66836578770000 -0.38401462540000
  0.00014326760000 -0.00430381930000  0.76274598530000 -0.21660178790000  1.45915483330000  3.23560434090000  4.52265819770000  2.48036425280000  0.83997396490000  0.31337316690000  0.18118555730000
 -0.00005865840000  0.00204732700000  0.45308813990000 -0.98295617190000 -2.64155976440000 -2.43858966350000 -2.44230196890000 -1.10621834900000 -0.34902348320000 -0.13022212270000 -0.07553096200000
  0.00001944410000 -0.00046069270000 -0.00088332770000  1.62421484460000  1.22631778330000  0.88928355100000  0.78488588490000  0.32962686760000  0.10120173210000  0.03780452690000  0.02195192680000
* p-type functions
   11   10
        879.63218253
        204.31262632
         63.23165555
         23.33434500
          9.45450537
          3.96418163
          1.65083954
          0.66386352
          0.25259699
          0.08933452
          0.03159442
  0.00102141850000 -0.00025891250000  0.00051187920000 -0.00150343970000  0.00110110490000 -0.00161758440000  0.00122553020000 -0.00131141020000  0.03214027490000 -0.08756275390000
  0.00833033320000 -0.00211649820000  0.00417235260000 -0.01318357250000  0.01086405010000 -0.01590450240000  0.01400636730000 -0.04464381560000 -0.13777899720000  1.62274594460000
  0.04221633140000 -0.01085287000000  0.02203987020000 -0.06668540620000  0.05152295110000 -0.08039445380000  0.06296741690000 -0.09139499430000  2.00964851770000 -1.87070449060000
  0.14066471120000 -0.03698260460000  0.08101669110000 -0.29077785280000  0.29147485930000 -0.52079629570000  0.49452532070000 -1.62023996570000 -3.09115864240000  1.50911268080000
  0.30484179850000 -0.08262774730000  0.18472529730000 -0.57094521350000  0.31863186200000 -0.08730673440000 -0.23962231350000  3.63831479670000  2.81395062120000 -1.06394538690000
  0.42068526120000 -0.11894805390000  0.08468143140000  0.21695560660000 -0.70304559680000  1.65211997540000 -1.19217984080000 -4.11937796490000 -1.95458699540000  0.66856170340000
  0.26674213350000 -0.07090617860000 -0.00619679490000  0.87587944420000 -0.51667337450000 -2.05401162530000  2.51195174900000  3.22552852360000  1.13606765860000 -0.37459585110000
  0.03146166830000  0.25157799470000 -0.62652494190000 -0.10434242560000  1.88884621490000  0.95069199690000 -2.92635492600000 -1.96968684220000 -0.58173245140000  0.18943889750000
  0.00169203010000  0.60826874810000 -0.33181115810000 -0.78859508770000 -1.60661132860000  0.38839299870000  2.65469387170000  1.02681410840000  0.27107119290000 -0.08760759150000
 -0.00048554820000  0.29486433770000  0.93076908620000  0.51852777340000  0.26409818510000 -1.19850289170000 -2.13652907800000 -0.49171244700000 -0.11622686440000  0.03704340420000
  0.00018002630000 -0.00141887120000  0.12141732760000  0.14161393200000  0.53184758340000  1.03849634510000  1.21808182720000  0.18248196420000  0.03792868690000 -0.01179181750000
* d-type functions
    7    7
         20.12334044
         10.15473015
          4.74399306
          2.03155037
          0.87001818
          0.38684225
          0.15239846
  0.00496398240000 -0.12744594040000  0.09024061620000 -0.32989214500000  0.32964033140000 -0.53660625700000  2.25645633640000
  0.00871654350000 -0.24337494950000  0.16978581430000 -0.43094602420000  0.25237975590000 -0.62282399690000 -3.96707363340000
  0.02693408860000 -0.50905365760000  0.19753876450000  0.00732037800000 -0.32125935020000  2.42075044650000  3.32500589600000
  0.03344886790000 -0.26521949650000 -0.02039571970000  0.90678467650000 -0.98421170700000 -2.96106619230000 -2.02899648350000
  0.20676004720000 -0.03882958530000 -0.73062618870000 -0.05403342850000  2.38041162350000  2.37913993750000  1.13507923720000
  0.55858138220000  0.15196084360000 -0.20660288920000 -0.90026729010000 -2.30401624610000 -1.33091349030000 -0.52565413060000
  0.34733212630000  0.15438031860000  0.89033806320000  0.71888306890000  1.06454879950000  0.42668907860000  0.14972695100000
* f-type functions
    5    5
         13.71120046
          6.02281738
          2.22470524
          0.76469620
          0.29936921
  0.00114669420000 -0.26830952520000  0.19148951530000 -0.32109655250000  1.43606157780000
  0.00974719110000 -0.49608300940000  0.31331182620000 -0.55604415710000 -1.72959898300000
 -0.00071051910000 -0.36209496710000  0.01423586190000  1.40379569230000  0.95359972730000
  0.51619290800000 -0.15632276550000 -1.10726680600000 -1.05249353460000 -0.43162686050000
  0.59354873300000  0.35230058220000  1.03159784990000  0.51597707840000  0.16365742570000
* g-type functions
    1    1
          0.55357102
  1.00000000000000

/S.ANO-R.Zobel.17s11p7d5f2g.11s10p7d5f2g.
J.P. Zobel, P.-O. Widmark, V. Veryazov. J. Chem. Theory Comput. 16 (2020) 278-294. doi:10.1021/acs.jctc.9b00873
SULFUR (17s,11p,7d,5f,2g) -> [11s,10p,7d,5f,2g]
    16.0   4
* s-type functions
   17   11
    1302321.28220000
     186162.19480000
      36823.49261100
       9313.69480200
       2826.62963130
        978.95091902
        372.15756349
        150.78409824
         63.68259753
         27.56807646
         12.06792850
          5.27692841
          2.27520227
          0.95220413
          0.37899178
          0.13960504
          0.05142478
  0.00007305480000 -0.00002440460000  0.00000614890000 -0.00000218120000  0.00000991740000 -0.00002111990000  0.00002283300000 -0.00002437110000  0.00005958750000 -0.00006873440000  0.00024403860000
  0.00027596080000 -0.00009220310000  0.00002323590000 -0.00000829800000  0.00003776550000 -0.00007999330000  0.00008562570000 -0.00010636720000  0.00011758410000 -0.00065483300000  0.00001103720000
  0.00109092940000 -0.00036508820000  0.00009201380000 -0.00003236830000  0.00014696500000 -0.00031504640000  0.00034440770000 -0.00029186760000  0.00141955720000  0.00081188970000  0.00829342260000
  0.00390681050000 -0.00130897040000  0.00033024610000 -0.00011934740000  0.00054456380000 -0.00114418740000  0.00120797880000 -0.00190005780000 -0.00099851430000 -0.01870325600000 -0.02186941100000
  0.01301427330000 -0.00439467620000  0.00110995020000 -0.00038449780000  0.00174135960000 -0.00377928890000  0.00420896940000 -0.00188507730000  0.02867436940000  0.04772377430000  0.20549275080000
  0.03948861520000 -0.01350327300000  0.00342839050000 -0.00126052940000  0.00578139410000 -0.01204179340000  0.01251747580000 -0.02585188440000 -0.04940712250000 -0.34021433910000 -0.44843915030000
  0.10604084030000 -0.03774444730000  0.00966856360000 -0.00328433520000  0.01487505700000 -0.03297610310000  0.03776348630000  0.00098877680000  0.38573851840000  0.76343763000000  3.66984222370000
  0.23419300880000 -0.09025164340000  0.02368489510000 -0.00892877960000  0.04147525710000 -0.08596131240000  0.08757710610000 -0.23997109990000 -0.67560623220000 -4.28453865030000 -6.74405469160000
  0.37014608710000 -0.17440545530000  0.04788063360000 -0.01562164070000  0.07207837400000 -0.17529045670000  0.23139170610000  0.11286635990000  3.86128123160000  8.12388734850000  6.66389417000000
  0.29330860160000 -0.19867676690000  0.05939879200000 -0.02526227660000  0.13373891940000 -0.33946488020000  0.45055290860000 -1.80110123060000 -8.55552987970000 -8.27246724440000 -4.94735524710000
  0.06766951370000  0.02429167930000 -0.01069917500000  0.01398289930000 -0.13553433960000  0.63599431800000 -1.53823556840000  6.44887378490000  9.68413715160000  6.13848246230000  3.22216083840000
  0.02806233610000  0.50124107410000 -0.20387393540000  0.05162784480000 -0.34338161720000  1.21479023050000 -0.67407842920000 -9.86088251400000 -7.44127400130000 -3.87446781710000 -1.94599898370000
  0.02755708460000  0.53303652810000 -0.38670436710000  0.20379415510000 -0.68543074180000 -1.24220268370000  4.67178719830000  9.39776353680000  4.54658398910000  2.19768507940000  1.09600168270000
  0.00390858910000  0.07449511990000  0.02516341850000 -0.12800047540000  1.25394496640000 -1.72663233690000 -6.41592925380000 -6.53536295510000 -2.38085237570000 -1.13103703090000 -0.56801115610000
 -0.00001007340000  0.00163262930000  0.77679953090000 -0.17343646370000  1.08381294350000  3.51581777000000  5.20443698060000  3.59958236590000  1.09627656610000  0.52323953940000  0.26522556480000
  0.00001799120000 -0.00027023840000  0.38205993650000 -0.99998241470000 -2.60677573090000 -2.79345113890000 -2.90117097140000 -1.61350367670000 -0.44096717840000 -0.21227929740000 -0.10829995080000
 -0.00000238760000  0.00023174180000  0.00196996060000  1.65610825180000  1.27186696510000  1.03152355620000  0.93645833830000  0.47635343930000  0.12444178000000  0.06022749880000  0.03081603050000
* p-type functions
   11   10
       1004.99879720
        231.87046968
         71.71446810
         26.44455465
         10.69681872
          4.48307061
          1.87310932
          0.75890884
          0.29093408
          0.10250427
          0.03611514
  0.00107466850000 -0.00028898860000  0.00042551430000 -0.00149089660000  0.00125488120000 -0.00178119120000  0.00128436110000 -0.00142684960000  0.03375464250000 -0.08481915580000
  0.00873461450000 -0.00236142210000  0.00346834680000 -0.01323189890000  0.01162261590000 -0.01610059410000  0.01447020040000 -0.04264232460000 -0.15656826120000  1.61764628840000
  0.04430305340000 -0.01209711670000  0.01818667740000 -0.06597660330000  0.05832724130000 -0.08956125120000  0.06715238260000 -0.09469037420000  2.02758999440000 -1.84238954840000
  0.14753033360000 -0.04143015880000  0.06606238150000 -0.29340406220000  0.30517363400000 -0.53986577690000  0.51709803730000 -1.58456048120000 -3.10902628670000  1.46844714560000
  0.31835116290000 -0.09200129910000  0.14758110650000 -0.53995940220000  0.37943358060000 -0.02386409900000 -0.37105801590000  3.62175178160000  2.83291424920000 -1.03074060100000
  0.42615349640000 -0.13114386180000  0.09565444050000  0.21912543420000 -0.77394365000000  1.66833781590000 -0.96000009340000 -4.19672455540000 -1.97496279840000  0.65126029820000
  0.24315723580000 -0.05276460430000  0.02453873480000  0.81354821520000 -0.52180204650000 -2.25341961360000  2.27947714230000  3.38933080400000  1.15435449870000 -0.36907350820000
[...]
RADON (25s,22p,14d,9f,6g,4h) -> [15s,15p,12d,8f,6g,4h]
    86.0   5
* s-type functions
   25   15
   58881611.41000000
   15125006.88400000
    4466271.24390000
    1471700.41390000
     528219.39602000
     202567.58615000
      81773.28443400
      34362.78124900
      14911.30338500
       6645.27120730
       3030.71133070
       1411.43499940
        670.25016107
        324.12558850
        159.34405016
         79.41384007
         39.94581940
         20.14485947
         10.08889658
          4.95317961
          2.34371986
          1.04596141
          0.42859488
          0.15606246
          0.05682637
  0.00067729390000 -0.00050204400000  0.00033189890000 -0.00013346130000  0.00004557300000 -0.00001536670000  0.00000592590000 -0.00002414310000  0.00003522420000 -0.00005360930000  0.00010528470000 -0.00022912640000  0.00043767010000 -0.00453103470000  0.02519273750000
  0.00172968050000 -0.00128292300000  0.00084867590000 -0.00034136990000  0.00011658300000 -0.00003931260000  0.00001515600000 -0.00006175140000  0.00009017880000 -0.00013811540000  0.00026412100000 -0.00060182740000  0.00111697120000  0.01093255480000 -0.10150135950000
  0.00342898030000 -0.00254626320000  0.00168626330000 -0.00067863650000  0.00023178300000 -0.00007815500000  0.00003014610000 -0.00012281190000  0.00017906740000 -0.00027126640000  0.00054315480000 -0.00114043140000  0.00236471700000 -0.04549898210000  0.17171938630000
  0.00618945300000 -0.00460613810000  0.00305718250000 -0.00123168220000  0.00042086170000 -0.00014193550000  0.00005469550000 -0.00022288240000  0.00032590360000 -0.00050370730000  0.00092664100000 -0.00225010100000  0.00300800620000  0.11373460570000 -0.09949296830000
  0.01097509320000 -0.00819822600000  0.00546048430000 -0.00220353320000  0.00075310650000 -0.00025394050000  0.00009803100000 -0.00039928200000  0.00058084080000 -0.00086494140000  0.00185525670000 -0.00346060230000  0.00952691850000 -0.20839859190000 -0.17962660180000
  0.01911488460000 -0.01436253460000  0.00962311830000 -0.00389439250000  0.00133270230000 -0.00044962290000  0.00017302400000 -0.00070535260000  0.00103567010000 -0.00164679070000  0.00266298920000 -0.00793797300000  0.00750648190000  0.36113156740000  1.20152709670000
  0.03352556840000 -0.02542774460000  0.01718296360000 -0.00698114020000  0.00238990510000 -0.00080583720000  0.00031176450000 -0.00126921580000  0.00183425730000 -0.00259998270000  0.00667859690000 -0.00876685430000  0.03534425360000 -0.64949819140000 -2.94792732740000
  0.05855045340000 -0.04502390750000  0.03084395290000 -0.01261260830000  0.00433123450000 -0.00146253260000  0.00056104550000 -0.00228890470000  0.00339495070000 -0.00575146130000  0.00656720460000 -0.03167351290000  0.00879461570000  1.06681093190000  2.50309795250000
  0.10070691330000 -0.07923951710000  0.05538090610000 -0.02285446160000  0.00785457700000 -0.00264852950000  0.00102919390000 -0.00418697800000  0.00596405740000 -0.00753392700000  0.02746877160000 -0.01432867200000  0.13119634560000 -1.54226302340000  2.53845689110000
  0.16247497090000 -0.13264910790000  0.09596946120000 -0.04024123970000  0.01393489300000 -0.00471467060000  0.00179730660000 -0.00734160140000  0.01112550810000 -0.02118995190000  0.00720983940000 -0.14326580390000  0.05257946350000  1.34180363280000 -9.08937480260000
  0.22361872290000 -0.19529642260000  0.14908767400000 -0.06405433530000  0.02224478670000 -0.00750275580000  0.00294661370000 -0.01197256290000  0.01643059080000 -0.01418285000000  0.11691732170000  0.05327810060000  0.59671324800000 -1.87049817760000 12.95940196230000
  0.21789471610000 -0.20559168650000  0.16766770730000 -0.07418070740000  0.02622233410000 -0.00892915860000  0.00330938530000 -0.01358250990000  0.02258320830000 -0.06241042230000 -0.10466847280000 -0.59082930560000 -0.42685116210000  0.34599998180000 -1.357820801140e1
  0.12667120830000 -0.06700153820000  0.01557687570000  0.00205116120000 -0.00220399110000  0.00093129660000 -0.00002861510000  0.00033979590000 -0.00738023440000  0.08090747210000  0.40467991030000  1.25328390750000  0.31395840740000  7.08500089760000 12.33915795510000
  0.11744989980000  0.17979641910000 -0.42279872820000  0.27031341820000 -0.10582813350000  0.03624270530000 -0.01479208970000  0.06020581030000 -0.07236401910000 -0.05542221910000 -1.28894462480000 -1.81271793820000 -5.93113969680000 -1.591533507210e1 -1.037566800160e1
  0.12463811730000  0.19139642450000 -0.70408279070000  0.52826626910000 -0.22384930250000  0.07890787840000 -0.02859973170000  0.11848998060000 -0.21593675060000  0.73955758320000  1.72875816580000  7.29422143990000 14.55176137120000 19.89141984280000  8.23831983310000
  0.06374575490000  0.15782273890000 -0.06522273820000 -0.04849290780000  0.04009575070000 -0.01668462730000  0.00223832430000 -0.01290165590000  0.11594247610000 -1.11240662760000 -4.79815327960000 -1.722834119550e1 -1.862875484490e1 -1.824241270010e1 -6.19325219480000
  0.09232595020000  0.34999419590000  0.54145156180000 -1.21465017660000  0.69192125400000 -0.25519169990000  0.10816270700000 -0.45039434300000  0.50673262970000  1.07711455820000 13.61387520980000 22.85278023430000 16.68518475090000 13.79680428340000  4.39389854930000
  0.03681837460000  0.14412234350000  0.23677284070000 -0.40167257560000  0.24528255330000 -0.10006743790000  0.02057571860000 -0.08559361950000  0.47762578360000 -4.58421783350000 -2.210877436970e1 -2.033443427390e1 -1.193020760740e1 -9.16935166070000 -2.91907469410000
  0.01435689870000  0.06773669970000  0.23855547520000  1.00145496410000 -1.16733847870000  0.52783897430000 -0.17377298360000  0.81783449670000 -2.23475259070000 12.09672477940000 22.50696572240000 13.75411559420000  7.30685892500000  5.51736540360000  1.79291248330000
  0.00549871570000  0.02750411740000  0.09926197210000  0.42717853280000 -0.65606231050000  0.31094138400000 -0.18713368900000  0.76637204110000  0.36697955900000 -1.692352834940e1 -1.606979294400e1 -7.69810065610000 -3.97994023450000 -3.02585300210000 -1.00327225890000
  0.00006705320000  0.00009548690000  0.00255142380000  0.05974291800000  1.14241254460000 -0.81613400910000  0.45323506770000 -2.75885970430000  4.71128512830000 14.95908297040000  8.84488935460000  3.76007998630000  1.95589871870000  1.50450690170000  0.50545354880000
  0.00010129350000  0.00072505890000  0.00339536120000  0.03572550960000  0.51961166440000 -0.60745947540000  0.09278937560000  1.14814427580000 -7.56588520190000 -9.45513599250000 -4.04960924440000 -1.64908910410000 -0.86897089220000 -0.67415240980000 -0.22807489640000
 -0.00002184120000 -0.00018142340000 -0.00066602260000 -0.00329978290000 -0.00996918530000  0.89911903180000 -0.18712327010000  2.26405928600000  6.31520288820000  4.68300920190000  1.62730309320000  0.65704060960000  0.34924943580000  0.27215741590000  0.09237360760000
  0.00000769610000  0.00006562070000  0.00024669660000  0.00136278690000  0.00747321810000  0.59924532960000 -1.32122578020000 -3.05371715480000 -3.54087266070000 -1.93665313560000 -0.59438494210000 -0.23991420950000 -0.12804775700000 -0.09996761810000 -0.03397646220000
 -0.00000210930000 -0.00001810650000 -0.00006849770000 -0.00037981780000 -0.00202737290000 -0.00184175420000  1.78039475590000  1.28801890750000  1.15302404580000  0.55858754600000  0.16357267890000  0.06609866900000  0.03533065000000  0.02759938070000  0.00938476480000
* p-type functions
   22   15
    9898800.61670000
    1723237.48990000
     380832.54819000
     102189.66821000
      32067.60023300
      11405.75516400
       4480.89210630
       1903.74970000
        859.77268541
        406.98179602
        199.57342610
        100.36436666
         51.28332532
         26.38065493
         13.52654701
          6.83454725
          3.35658907
          1.57570625
          0.69263867
          0.27801307
          0.09883132
          0.03513371
  0.00004903220000 -0.00000728970000  0.00001375860000 -0.00000571570000  0.00000179810000 -0.00000274540000  0.00000394620000 -0.00000565470000  0.00000390500000 -0.00000991610000  0.00002168720000 -0.00003431270000  0.00013101550000 -0.00094372260000  0.00185305530000
  0.00017575050000 -0.00002625260000  0.00004940670000 -0.00002052780000  0.00000645750000 -0.00000986020000  0.00001420610000 -0.00002037020000  0.00001385590000 -0.00003397600000  0.00008279710000 -0.00010585840000  0.00074897650000  0.01285439970000 -0.01039362260000
  0.00057787890000 -0.00008686350000  0.00016285740000 -0.00006768070000  0.00002129560000 -0.00003251300000  0.00004662700000 -0.00006677410000  0.00004680980000 -0.00012286490000  0.00024141290000 -0.00045550320000  0.00050172290000 -0.05110499590000  0.03440428770000
  0.00172532020000 -0.00026168830000  0.00048795540000 -0.00020283790000  0.00006380280000 -0.00009743990000  0.00014098010000 -0.00020240580000  0.00013401020000 -0.00030732310000  0.00090420200000 -0.00080674610000  0.00481747980000  0.15639133980000 -0.13128956590000
  0.00499601190000 -0.00076875300000  0.00142115760000 -0.00059106460000  0.00018605840000 -0.00028400990000  0.00040471080000 -0.00057880380000  0.00042231070000 -0.00120122060000  0.00174707110000 -0.00521717630000  0.00260375850000 -0.42167612250000  0.22616062450000
  0.01421692260000 -0.00223644620000  0.00408063460000 -0.00169841050000  0.00053418830000 -0.00081615780000  0.00119083210000 -0.00171331560000  0.00107442980000 -0.00210993750000  0.00898083840000 -0.00236836870000  0.04514896270000  0.94750656210000 -0.67061008770000
  0.03947383810000 -0.00644619780000  0.01150632950000 -0.00479518580000  0.00151071150000 -0.00230537230000  0.00325439810000 -0.00464824010000  0.00358911080000 -0.01126346130000  0.01005470780000 -0.05732253560000 -0.01163726340000 -1.78481903660000 -0.14815115410000
  0.10279622800000 -0.01785374050000  0.03077540460000 -0.01285596430000  0.00404478590000 -0.00618417460000  0.00911886360000 -0.01315761210000  0.00770922240000 -0.01177465540000  0.08142841560000  0.01865906890000  0.53123559940000  3.06691382750000 -1.20309715420000
  0.23030458660000 -0.04391846110000  0.07192788860000 -0.03015362070000  0.00951729760000 -0.01452025960000  0.02022479470000 -0.02885205940000  0.02408937730000 -0.08473201020000  0.02812140130000 -0.49829088370000  0.37806557640000 -6.32727165090000  2.93154325500000
  0.38934970840000 -0.08244993180000  0.12816114290000 -0.05401087750000  0.01700314140000 -0.02604893880000  0.03953263830000 -0.05754546700000  0.02756928130000 -0.00079143530000  0.49305706730000  0.52712307040000  0.52288965270000 10.62445176270000 -2.56069604030000
  0.38343771780000 -0.06118099510000  0.10862347690000 -0.04480992950000  0.01417955110000 -0.02147145710000  0.02555308920000 -0.03488121930000  0.05617771160000 -0.32320399260000 -0.59987035740000 -2.38349721800000 -4.39780670080000 -1.304010611900e1  1.10316523530000
  0.09480788350000  0.18648626050000 -0.15281295350000  0.07528049680000 -0.02473783900000  0.03774891360000 -0.04260442540000  0.06308363820000 -0.12667504200000  0.78896658470000  1.09164773210000  7.57187223330000  7.16538114310000 12.35419402880000 -0.06857158540000
 -0.14650144240000  0.49969767940000 -0.52278541520000  0.25872499960000 -0.08364544040000  0.13049724330000 -0.22150651450000  0.33788921790000 -0.05889458910000 -0.85739764000000 -5.05095669440000 -1.173711504960e1 -6.92069014120000 -9.67379186480000 -0.25475245700000
 -0.10663273910000  0.32926176010000 -0.22203092300000  0.08171524960000 -0.02596979940000  0.03669253410000  0.01513547310000 -0.07094214870000 -0.30806244390000  2.82023256520000  9.97321108390000 11.52177462370000  5.03603665210000  6.61862047660000  0.22019808670000
 -0.03242441920000  0.09734211260000  0.57287180450000 -0.44798298340000  0.16188300000000 -0.25663742920000  0.27642141650000 -0.44242695090000  1.09954073440000 -7.24307758390000 -1.085876383940e1 -8.35953850330000 -3.10247215550000 -4.10023074210000 -0.12174945180000
 -0.01658384330000  0.05046074320000  0.54814888800000 -0.48809122890000  0.17381651150000 -0.29650446930000  0.70037067360000 -1.14573864230000 -0.58142315170000 10.02917373940000  7.94018318300000  4.93675206040000  1.72392719760000  2.33490537290000  0.05644939370000
 -0.00216545470000  0.00662395370000  0.09935859600000  0.43556657280000 -0.21317980000000  0.47706046950000 -1.51845564690000  3.93269300090000 -1.35577298450000 -8.81783010950000 -4.46431867080000 -2.53620762240000 -0.88466869110000 -1.22223015610000 -0.02467613070000
 -0.00024630760000  0.00143940320000  0.02465405580000  0.71374202170000 -0.41190942170000  0.70127880370000  0.05577728980000 -4.62216804170000  2.91274827590000  5.69938375300000  2.12725544080000  1.18121381830000  0.41924308950000  0.58537106940000  0.01055578630000
  0.00007397430000 -0.00017105450000  0.00382027370000  0.15552695250000  0.10503122880000 -1.07774520960000  1.97325084020000  2.94552346480000 -3.25860664550000 -3.05049458610000 -0.91373013920000 -0.50775984310000 -0.18279438880000 -0.25634242660000 -0.00436817470000
 -0.00003441840000  0.00013204230000  0.00037669150000  0.00207134970000  0.70851922350000 -0.41798292290000 -2.09760919990000 -0.86917637930000  2.89024834570000  1.49045476540000  0.36654418750000  0.20301261890000  0.07360420180000  0.10337478840000  0.00171829510000
  0.00001379220000 -0.00005057960000 -0.00011407910000  0.00178719480000  0.37118838130000  0.96736338720000  0.79106761390000 -0.49667814810000 -2.42140232150000 -0.73499100850000 -0.14258787310000 -0.07718885850000 -0.02805051510000 -0.03941384850000 -0.00064793460000
 -0.00000427970000  0.00001582600000  0.00003809360000 -0.00033942680000 -0.00124484150000  0.08816936580000  0.31352767560000  0.76640946120000  1.49154674310000  0.31000121890000  0.04601187700000  0.02381622020000  0.00865381280000  0.01216031940000  0.00019862020000
* d-type functions
   14   12
       9860.43959880
       2643.01458240
        933.08229271
        391.32475814
        181.37324359
         88.58709978
         44.28666501
         22.27949457
         11.15455491
          5.49463526
          2.61522975
          1.16602865
          0.46319130
          0.18399735
  0.00049862990000 -0.00028942660000  0.00010740120000 -0.00006944710000  0.00011462720000 -0.00014669440000  0.00016012770000 -0.00073594740000  0.00005195780000 -0.00432391350000  0.00310387210000 -0.05092892500000
  0.00378241100000 -0.00221491870000  0.00082645710000 -0.00053003270000  0.00086368250000 -0.00130179860000  0.00234018800000 -0.00187983640000  0.01324503740000 -0.00324916660000 -0.09019772630000  0.20200865380000
  0.02041477160000 -0.01200252870000  0.00446863710000 -0.00289228760000  0.00478189000000 -0.00610434830000  0.00657922940000 -0.03165221470000  0.00387037870000 -0.23683641360000 -0.19680203730000 -2.06579631320000
  0.07713965190000 -0.04624259890000  0.01736715200000 -0.01114561390000  0.01819964360000 -0.02773338350000  0.05067525090000 -0.03876820280000  0.29875510280000 -0.11699365470000 -1.72787763420000  3.51005335910000
  0.20645620250000 -0.12527951900000  0.04700432740000 -0.03053059370000  0.05084741200000 -0.06376484110000  0.06159094600000 -0.37793831580000 -0.06253426870000 -1.75779393910000  3.89853182830000 -3.72957770370000
  0.36892640280000 -0.22109007350000  0.08322324790000 -0.05305909460000  0.08501735480000 -0.13777517070000  0.29096832910000  0.07148056000000  1.71981621390000  4.25499423380000 -4.45254064220000  3.06303950750000
  0.36460870720000 -0.14781405820000  0.04534354410000 -0.02954933390000  0.04692525920000  0.00358717200000 -0.26736278170000 -0.80197085140000 -4.61819763700000 -4.78578709530000  3.61637437260000 -2.15197670020000
  0.15110479750000  0.24173296190000 -0.13170931610000  0.09387263800000 -0.18001848530000  0.17165088960000  0.20684559760000  3.49465518770000  5.60565327300000  3.65187129750000 -2.40220373760000  1.37371021090000
  0.03186479450000  0.53386849640000 -0.27432249820000  0.17698322730000 -0.26318453310000  0.57688603670000 -1.86845473570000 -5.08383536050000 -4.36804153610000 -2.22295498910000  1.40920757950000 -0.81498259170000
  0.01019184320000  0.32284688460000 -0.05438602690000  0.03159162460000 -0.02007588670000 -0.72964336200000  3.91710902870000  4.17516000620000  2.54988288980000  1.17676717920000 -0.75238536230000  0.44527830000000
  0.00140624900000  0.04579463950000  0.44908194480000 -0.46453537160000  1.10751425530000 -0.76135607370000 -4.02101569670000 -2.37183919790000 -1.22143124310000 -0.55780358840000  0.36291905810000 -0.21845501720000
  0.00004069150000  0.00153870480000  0.54335034840000 -0.22503502250000 -0.79046748820000  2.00673857000000  2.68413998120000  1.04629417970000  0.50777312090000  0.23573862060000 -0.15523699760000  0.09426323190000
 -0.00000935050000 -0.00041476610000  0.17077632130000  0.64856046270000 -0.65216643500000 -1.99421702540000 -1.41079296560000 -0.40246237030000 -0.19414509880000 -0.09125647700000  0.06043338830000 -0.03682902570000
  0.00000290080000  0.00010270460000  0.00314255650000  0.48795920550000  0.99472278540000  1.07823813740000  0.54593840500000  0.12732787060000  0.06139014630000  0.02898759400000 -0.01923072250000  0.01173296650000
* f-type functions
    9    8
        632.48601472
        214.90037101
         90.89755394
         42.44356200
         20.61119735
         10.09877173
          4.83489843
          2.11963035
          0.92925071
  0.00176419440000 -0.00061624050000  0.00061317190000 -0.00092234680000  0.00810505240000 -0.00413364270000  0.05679958630000 -0.09375547670000
  0.01508793510000 -0.00578425740000  0.00468388680000  0.01357861610000 -0.02149457830000 -0.11319686130000 -0.01544648120000  1.67826343300000
  0.06686388010000 -0.02365225090000  0.02283006900000 -0.02372374830000  0.25854646310000 -0.29267827240000  1.75248913630000 -2.17297908410000
  0.18938842530000 -0.07409711010000  0.06079771720000  0.20376144900000 -0.21878995760000 -1.33045906140000 -2.93123261660000  1.84010424220000
  0.33943523480000 -0.12511835880000  0.14938169590000 -0.11339329220000  1.80835921290000  2.41326955570000  2.58550277950000 -1.23253669560000
  0.38217830350000 -0.16351440750000  0.13682452340000  1.16281259830000 -2.89380576000000 -1.86655339430000 -1.56996432300000  0.69253548170000
  0.24880190390000  0.06829664790000 -0.03038962280000 -2.42237238070000  1.92523509270000  1.00882649150000  0.74236778940000 -0.33165495190000
  0.06255433630000  0.51457154510000 -1.22544940630000  1.97365291630000 -0.81246375450000 -0.43710227520000 -0.29857228760000  0.13797490690000
  0.00129953500000  0.52956651030000  1.27724798750000 -0.79610547200000  0.25882678880000  0.13986206340000  0.09568479480000 -0.04514463740000
* g-type functions
    6    6
          5.47224620
          4.19804010
          2.70541001
          1.36309918
          0.70758650
          0.31100318
  0.00845193510000 -0.05520346610000  0.27401645360000 -0.72091235480000  1.67355030260000 -7.47360963880000
  0.04362729840000  0.17195043330000 -0.64372475930000  1.70950540300000 -5.56583693950000 11.59661225280000
  0.30000717000000  0.44690389420000 -0.54652524450000 -0.24274294980000  5.75019018130000 -6.22847760470000
  0.40659602210000  0.33466435340000  0.77877276710000 -1.74298868410000 -3.51217856830000  2.34273961240000
  0.34174854280000 -0.58762951590000  0.40142146060000  2.02266855680000  1.85974289240000 -1.00216102590000
  0.15157463570000 -0.46459840430000 -0.85250561980000 -1.05246960880000 -0.57880187850000  0.27523013390000
* h-type functions
    4    4
          2.81921748
          0.84433021
          1.56632103
          0.40112731
  0.40508071860000 -0.68252584170000  1.04909576520000 -1.35645737490000
  0.36743633900000  0.54232630160000 -0.35035303770000 -2.41676189490000
  0.34789429600000 -0.10789965720000 -1.00279873200000  2.68116420770000
  0.10040112270000  0.44582932550000  0.90186697510000  1.14715873110000
