************************************************************************
* This file is part of OpenMolcas.                                     *
*                                                                      *
* OpenMolcas is free software; you can redistribute it and/or modify   *
* it under the terms of the GNU Lesser General Public License, v. 2.1. *
* OpenMolcas is distributed in the hope that it will be useful, but it *
* is provided "as is" and without any express or implied warranties.   *
* For more details see the full text of the license in the file        *
* LICENSE or in <http://www.gnu.org/licenses/>.                        *
************************************************************************

#Hamiltonian NRH
#Nucleus UNK
#Contraction CCC
#AllElectron AE_

************************************************************************
* This file has been generated from Basis Set Exchange data:           *
*   https://www.basissetexchange.org                                   *
* Version: 1  (Data from ccRepo/Grant Hill)                            *
************************************************************************

/H.aug-cc-pV5Z.Kendall.9s5p4d3f2g.6s5p4d3f2g.
R.A. Kendall, T.H. Dunning, R.J. Harrison. J. Chem. Phys. 96 (1992) 6796-6806. doi:10.1063/1.462569
HYDROGEN (9s,5p,4d,3f,2g) -> [6s,5p,4d,3f,2g]
     1.0   4
* s-type functions
    9    6
        402.00000000
         60.24000000
         13.73000000
          3.90500000
          1.28300000
          0.46550000
          0.18110000
          0.07279000
          0.02070000
  0.0002790000  0.0000000000  0.0000000000  0.0000000000  0.0000000000  0.0000000000
  0.0021650000  0.0000000000  0.0000000000  0.0000000000  0.0000000000  0.0000000000
  0.0112010000  0.0000000000  0.0000000000  0.0000000000  0.0000000000  0.0000000000
  0.0448780000  0.0000000000  0.0000000000  0.0000000000  0.0000000000  0.0000000000
  0.1422990000  1.0000000000  0.0000000000  0.0000000000  0.0000000000  0.0000000000
  0.3309790000  0.0000000000  1.0000000000  0.0000000000  0.0000000000  0.0000000000
  0.4362690000  0.0000000000  0.0000000000  1.0000000000  0.0000000000  0.0000000000
  0.1764400000  0.0000000000  0.0000000000  0.0000000000  1.0000000000  0.0000000000
  0.0000000000  0.0000000000  0.0000000000  0.0000000000  0.0000000000  1.0000000000
* p-type functions
    5    5
          4.51600000
          1.71200000
          0.64900000
          0.24600000
          0.07440000
  1.0000000000  0.0000000000  0.0000000000  0.0000000000  0.0000000000
  0.0000000000  1.0000000000  0.0000000000  0.0000000000  0.0000000000
  0.0000000000  0.0000000000  1.0000000000  0.0000000000  0.0000000000
  0.0000000000  0.0000000000  0.0000000000  1.0000000000  0.0000000000
  0.0000000000  0.0000000000  0.0000000000  0.0000000000  1.0000000000
* d-type functions
    4    4
          2.95000000
          1.20600000
          0.49300000
          0.15600000
  1.0000000000  0.0000000000  0.0000000000  0.0000000000
  0.0000000000  1.0000000000  0.0000000000  0.0000000000
  0.0000000000  0.0000000000  1.0000000000  0.0000000000
  0.0000000000  0.0000000000  0.0000000000  1.0000000000
* f-type functions
    3    3
          2.50600000
          0.87500000
          0.27400000
  1.0000000000  0.0000000000  0.0000000000
  0.0000000000  1.0000000000  0.0000000000
  0.0000000000  0.0000000000  1.0000000000
* g-type functions
    2    2
          2.35800000
          0.54300000
  1.0000000000  0.0000000000
  0.0000000000  1.0000000000

/He.aug-cc-pV5Z.Woon.9s5p4d3f2g.6s5p4d3f2g.
D.E. Woon, T.H. Dunning. J. Chem. Phys. 100 (1994) 2975-2988. doi:10.1063/1.466439
HELIUM (9s,5p,4d,3f,2g) -> [6s,5p,4d,3f,2g]
     2.0   4
* s-type functions
    9    6
       1145.00000000
        171.70000000
         39.07000000
         11.04000000
          3.56600000
          1.24000000
          0.44730000
          0.16400000
          0.04664000
  0.0003590000  0.0000000000  0.0000000000  0.0000000000  0.0000000000  0.0000000000
  0.0027710000  0.0000000000  0.0000000000  0.0000000000  0.0000000000  0.0000000000
  0.0142510000  0.0000000000  0.0000000000  0.0000000000  0.0000000000  0.0000000000
  0.0555660000  0.0000000000  0.0000000000  0.0000000000  0.0000000000  0.0000000000
  0.1620910000  1.0000000000  0.0000000000  0.0000000000  0.0000000000  0.0000000000
  0.3321970000  0.0000000000  1.0000000000  0.0000000000  0.0000000000  0.0000000000
  0.4196150000  0.0000000000  0.0000000000  1.0000000000  0.0000000000  0.0000000000
  0.1861280000  0.0000000000  0.0000000000  0.0000000000  1.0000000000  0.0000000000
  0.0000000000  0.0000000000  0.0000000000  0.0000000000  0.0000000000  1.0000000000
* p-type functions
    5    5
         10.15300000
          3.62700000
          1.29600000
          0.46300000
          0.14000000
  1.0000000000  0.0000000000  0.0000000000  0.0000000000  0.0000000000
  0.0000000000  1.0000000000  0.0000000000  0.0000000000  0.0000000000
  0.0000000000  0.0000000000  1.0000000000  0.0000000000  0.0000000000
  0.0000000000  0.0000000000  0.0000000000  1.0000000000  0.0000000000
  0.0000000000  0.0000000000  0.0000000000  0.0000000000  1.0000000000
* d-type functions
    4    4
          7.66600000
          2.64700000
          0.91400000
          0.28920000
  1.0000000000  0.0000000000  0.0000000000  0.0000000000
  0.0000000000  1.0000000000  0.0000000000  0.0000000000
  0.0000000000  0.0000000000  1.0000000000  0.0000000000
  0.0000000000  0.0000000000  0.0000000000  1.0000000000
* f-type functions
    3    3
          5.41100000
          1.70700000
          0.53450000
  1.0000000000  0.0000000000  0.0000000000
  0.0000000000  1.0000000000  0.0000000000
  0.0000000000  0.0000000000  1.0000000000
* g-type functions
    2    2
          3.43000000
          0.78990000
  1.0000000000  0.0000000000
  0.0000000000  1.0000000000

/Li.aug-cc-pV5Z.Prascher.15s9p5d4f3g2h.7s6p5d4f3g2h.
B.P. Prascher, D.E. Woon, K.A. Peterson, T.H. Dunning, A.K. Wilson. Theor. Chem. Acc. 128 (2011) 69-82. doi:10.1007/s00214-010-0764-0
LITHIUM (15s,9p,5d,4f,3g,2h) -> [7s,6p,5d,4f,3g,2h]
     3.0   5
* s-type functions
   15    7
      29493.00000000
       4417.10100000
       1005.22300000
        284.70090000
         92.86543000
         33.51179000
         13.04180000
          5.35753600
          2.27933800
          0.99399000
          0.43347100
          0.09556600
          0.04465700
          0.02063300
          0.00610000
  0.0000180000 -0.0000030000  0.0000000000  0.0000000000  0.0000000000  0.0000000000  0.0000000000
  0.0001410000 -0.0000220000  0.0000000000  0.0000000000  0.0000000000  0.0000000000  0.0000000000
  0.0007390000 -0.0001150000  0.0000000000  0.0000000000  0.0000000000  0.0000000000  0.0000000000
  0.0031070000 -0.0004870000  0.0000000000  0.0000000000  0.0000000000  0.0000000000  0.0000000000
  0.0111350000 -0.0017460000  0.0000000000  0.0000000000  0.0000000000  0.0000000000  0.0000000000
  0.0346700000 -0.0055200000  0.0000000000  0.0000000000  0.0000000000  0.0000000000  0.0000000000
  0.0921710000 -0.0149280000  0.0000000000  0.0000000000  0.0000000000  0.0000000000  0.0000000000
  0.1995760000 -0.0342060000  0.0000000000  0.0000000000  0.0000000000  0.0000000000  0.0000000000
  0.3288360000 -0.0621550000  0.0000000000  0.0000000000  0.0000000000  0.0000000000  0.0000000000
  0.3459750000 -0.0959020000  0.0000000000  0.0000000000  0.0000000000  0.0000000000  0.0000000000
  0.1427610000 -0.1039720000  1.0000000000  0.0000000000  0.0000000000  0.0000000000  0.0000000000
  0.0053190000  0.3071510000  0.0000000000  1.0000000000  0.0000000000  0.0000000000  0.0000000000
 -0.0021010000  0.5790280000  0.0000000000  0.0000000000  1.0000000000  0.0000000000  0.0000000000
  0.0008150000  0.2232310000  0.0000000000  0.0000000000  0.0000000000  1.0000000000  0.0000000000
  0.0000000000  0.0000000000  0.0000000000  0.0000000000  0.0000000000  0.0000000000  1.0000000000
* p-type functions
    9    6
         19.66350000
          4.62311000
          1.41378000
          0.47372100
          0.17615100
          0.07267500
          0.03214100
          0.01455600
          0.00650000
  0.0005400000  0.0000000000  0.0000000000  0.0000000000  0.0000000000  0.0000000000
  0.0038650000  0.0000000000  0.0000000000  0.0000000000  0.0000000000  0.0000000000
  0.0151710000  0.0000000000  0.0000000000  0.0000000000  0.0000000000  0.0000000000
  0.0492040000  0.0000000000  0.0000000000  0.0000000000  0.0000000000  0.0000000000
  0.1546610000  1.0000000000  0.0000000000  0.0000000000  0.0000000000  0.0000000000
  0.3600950000  0.0000000000  1.0000000000  0.0000000000  0.0000000000  0.0000000000
  0.4418520000  0.0000000000  0.0000000000  1.0000000000  0.0000000000  0.0000000000
  0.1560000000  0.0000000000  0.0000000000  0.0000000000  1.0000000000  0.0000000000
  0.0000000000  0.0000000000  0.0000000000  0.0000000000  0.0000000000  1.0000000000
* d-type functions
    5    5
          0.53100000
          0.24810000
          0.11590000
          0.05420000
          0.02350000
  1.0000000000  0.0000000000  0.0000000000  0.0000000000  0.0000000000
  0.0000000000  1.0000000000  0.0000000000  0.0000000000  0.0000000000
  0.0000000000  0.0000000000  1.0000000000  0.0000000000  0.0000000000
  0.0000000000  0.0000000000  0.0000000000  1.0000000000  0.0000000000
  0.0000000000  0.0000000000  0.0000000000  0.0000000000  1.0000000000
* f-type functions
    4    4
          0.29200000
          0.16410000
          0.09220000
          0.04480000
  1.0000000000  0.0000000000  0.0000000000  0.0000000000
  0.0000000000  1.0000000000  0.0000000000  0.0000000000
  0.0000000000  0.0000000000  1.0000000000  0.0000000000
  0.0000000000  0.0000000000  0.0000000000  1.0000000000
* g-type functions
    3    3
          0.29710000
          0.15000000
          0.07240000
  1.0000000000  0.0000000000  0.0000000000
  0.0000000000  1.0000000000  0.0000000000
  0.0000000000  0.0000000000  1.0000000000
* h-type functions
    2    2
          0.29490000
          0.12740000
  1.0000000000  0.0000000000
  0.0000000000  1.0000000000

/Be.aug-cc-pV5Z.Prascher.15s9p5d4f3g2h.7s6p5d4f3g2h.
B.P. Prascher, D.E. Woon, K.A. Peterson, T.H. Dunning, A.K. Wilson. Theor. Chem. Acc. 128 (2011) 69-82. doi:10.1007/s00214-010-0764-0
BERYLLIUM (15s,9p,5d,4f,3g,2h) -> [7s,6p,5d,4f,3g,2h]
     4.0   5
* s-type functions
   15    7
      54620.00000000
       8180.00000000
       1862.00000000
        527.30000000
        172.00000000
         62.10000000
         24.21000000
          9.99300000
          4.30500000
          1.92100000
          0.86630000
          0.24750000
          0.10090000
          0.04129000
          0.01280000
  0.0000180000 -0.0000030000  0.0000000000  0.0000000000  0.0000000000  0.0000000000  0.0000000000
  0.0001380000 -0.0000250000  0.0000000000  0.0000000000  0.0000000000  0.0000000000  0.0000000000
  0.0007230000 -0.0001310000  0.0000000000  0.0000000000  0.0000000000  0.0000000000  0.0000000000
  0.0030390000 -0.0005580000  0.0000000000  0.0000000000  0.0000000000  0.0000000000  0.0000000000
  0.0109080000 -0.0019880000  0.0000000000  0.0000000000  0.0000000000  0.0000000000  0.0000000000
  0.0340350000 -0.0063700000  0.0000000000  0.0000000000  0.0000000000  0.0000000000  0.0000000000
  0.0911930000 -0.0172170000  0.0000000000  0.0000000000  0.0000000000  0.0000000000  0.0000000000
  0.1992680000 -0.0408580000  0.0000000000  0.0000000000  0.0000000000  0.0000000000  0.0000000000
  0.3293550000 -0.0742370000  0.0000000000  0.0000000000  0.0000000000  0.0000000000  0.0000000000
  0.3404890000 -0.1192340000  0.0000000000  0.0000000000  0.0000000000  0.0000000000  0.0000000000
  0.1437400000 -0.0877770000  1.0000000000  0.0000000000  0.0000000000  0.0000000000  0.0000000000
  0.0065170000  0.2787880000  0.0000000000  1.0000000000  0.0000000000  0.0000000000  0.0000000000
 -0.0018650000  0.5834990000  0.0000000000  0.0000000000  1.0000000000  0.0000000000  0.0000000000
  0.0004800000  0.2690070000  0.0000000000  0.0000000000  0.0000000000  1.0000000000  0.0000000000
  0.0000000000  0.0000000000  0.0000000000  0.0000000000  0.0000000000  0.0000000000  1.0000000000
* p-type functions
    9    6
         43.75000000
         10.33000000
          3.22600000
          1.12700000
          0.43340000
          0.18080000
          0.07827000
          0.03372000
          0.00760000
  0.0006330000  0.0000000000  0.0000000000  0.0000000000  0.0000000000  0.0000000000
  0.0048080000  0.0000000000  0.0000000000  0.0000000000  0.0000000000  0.0000000000
  0.0205270000  0.0000000000  0.0000000000  0.0000000000  0.0000000000  0.0000000000
  0.0678160000  0.0000000000  0.0000000000  0.0000000000  0.0000000000  0.0000000000
  0.1928680000  1.0000000000  0.0000000000  0.0000000000  0.0000000000  0.0000000000
  0.3786920000  0.0000000000  1.0000000000  0.0000000000  0.0000000000  0.0000000000
  0.4005740000  0.0000000000  0.0000000000  1.0000000000  0.0000000000  0.0000000000
  0.1380670000  0.0000000000  0.0000000000  0.0000000000  1.0000000000  0.0000000000
  0.0000000000  0.0000000000  0.0000000000  0.0000000000  0.0000000000  1.0000000000
* d-type functions
    5    5
          1.71750000
          0.76460000
          0.34040000
          0.15150000
          0.04280000
  1.0000000000  0.0000000000  0.0000000000  0.0000000000  0.0000000000
  0.0000000000  1.0000000000  0.0000000000  0.0000000000  0.0000000000
  0.0000000000  0.0000000000  1.0000000000  0.0000000000  0.0000000000
  0.0000000000  0.0000000000  0.0000000000  1.0000000000  0.0000000000
  0.0000000000  0.0000000000  0.0000000000  0.0000000000  1.0000000000
* f-type functions
    4    4
          0.61270000
          0.35680000
          0.20780000
          0.07190000
  1.0000000000  0.0000000000  0.0000000000  0.0000000000
  0.0000000000  1.0000000000  0.0000000000  0.0000000000
  0.0000000000  0.0000000000  1.0000000000  0.0000000000
  0.0000000000  0.0000000000  0.0000000000  1.0000000000
* g-type functions
    3    3
          0.59800000
          0.31830000
          0.09790000
  1.0000000000  0.0000000000  0.0000000000
  0.0000000000  1.0000000000  0.0000000000
  0.0000000000  0.0000000000  1.0000000000
* h-type functions
    2    2
          0.51420000
          0.20330000
  1.0000000000  0.0000000000
  0.0000000000  1.0000000000

/B.aug-cc-pV5Z.Kendall.15s9p5d4f3g2h.7s6p5d4f3g2h.
R.A. Kendall, T.H. Dunning, R.J. Harrison. J. Chem. Phys. 96 (1992) 6796-6806. doi:10.1063/1.462569
BORON (15s,9p,5d,4f,3g,2h) -> [7s,6p,5d,4f,3g,2h]
     5.0   5
* s-type functions
   15    7
      68260.00000000
      10230.00000000
       2328.00000000
        660.40000000
        216.20000000
         78.60000000
         30.98000000
         12.96000000
          5.65900000
          2.55600000
          1.17500000
          0.42490000
          0.17120000
          0.06913000
          0.02610000
  0.0000240000 -0.0000050000  0.0000000000  0.0000000000  0.0000000000  0.0000000000  0.0000000000
  0.0001850000 -0.0000370000  0.0000000000  0.0000000000  0.0000000000  0.0000000000  0.0000000000
  0.0009700000 -0.0001960000  0.0000000000  0.0000000000  0.0000000000  0.0000000000  0.0000000000
  0.0040560000 -0.0008240000  0.0000000000  0.0000000000  0.0000000000  0.0000000000  0.0000000000
  0.0143990000 -0.0029230000  0.0000000000  0.0000000000  0.0000000000  0.0000000000  0.0000000000
  0.0439010000 -0.0091380000  0.0000000000  0.0000000000  0.0000000000  0.0000000000  0.0000000000
  0.1130570000 -0.0241050000  0.0000000000  0.0000000000  0.0000000000  0.0000000000  0.0000000000
  0.2338250000 -0.0547550000  0.0000000000  0.0000000000  0.0000000000  0.0000000000  0.0000000000
  0.3539600000 -0.0969430000  0.0000000000  0.0000000000  0.0000000000  0.0000000000  0.0000000000
  0.3015470000 -0.1374850000  0.0000000000  0.0000000000  0.0000000000  0.0000000000  0.0000000000
  0.0875210000 -0.0445650000  1.0000000000  0.0000000000  0.0000000000  0.0000000000  0.0000000000
  0.0028190000  0.3243450000  0.0000000000  1.0000000000  0.0000000000  0.0000000000  0.0000000000
  0.0000430000  0.5704140000  0.0000000000  0.0000000000  1.0000000000  0.0000000000  0.0000000000
  0.0000780000  0.2434440000  0.0000000000  0.0000000000  0.0000000000  1.0000000000  0.0000000000
  0.0000000000  0.0000000000  0.0000000000  0.0000000000  0.0000000000  0.0000000000  1.0000000000
* p-type functions
    9    6
         66.44000000
         15.71000000
          4.93600000
          1.77000000
          0.70080000
          0.29010000
          0.12110000
          0.04973000
          0.01570000
  0.0008380000  0.0000000000  0.0000000000  0.0000000000  0.0000000000  0.0000000000
  0.0064090000  0.0000000000  0.0000000000  0.0000000000  0.0000000000  0.0000000000
  0.0280810000  0.0000000000  0.0000000000  0.0000000000  0.0000000000  0.0000000000
  0.0921520000  0.0000000000  0.0000000000  0.0000000000  0.0000000000  0.0000000000
  0.2241640000  1.0000000000  0.0000000000  0.0000000000  0.0000000000  0.0000000000
  0.3699150000  0.0000000000  1.0000000000  0.0000000000  0.0000000000  0.0000000000
  0.3744410000  0.0000000000  0.0000000000  1.0000000000  0.0000000000  0.0000000000
  0.1390860000  0.0000000000  0.0000000000  0.0000000000  1.0000000000  0.0000000000
  0.0000000000  0.0000000000  0.0000000000  0.0000000000  0.0000000000  1.0000000000
* d-type functions
    5    5
          2.01000000
          0.79600000
          0.31600000
          0.12500000
          0.04310000
  1.0000000000  0.0000000000  0.0000000000  0.0000000000  0.0000000000
  0.0000000000  1.0000000000  0.0000000000  0.0000000000  0.0000000000
  0.0000000000  0.0000000000  1.0000000000  0.0000000000  0.0000000000
  0.0000000000  0.0000000000  0.0000000000  1.0000000000  0.0000000000
  0.0000000000  0.0000000000  0.0000000000  0.0000000000  1.0000000000
* f-type functions
    4    4
          1.21500000
          0.52500000
          0.22700000
          0.08430000
  1.0000000000  0.0000000000  0.0000000000  0.0000000000
  0.0000000000  1.0000000000  0.0000000000  0.0000000000
  0.0000000000  0.0000000000  1.0000000000  0.0000000000
  0.0000000000  0.0000000000  0.0000000000  1.0000000000
* g-type functions
    3    3
          1.12400000
          0.46100000
          0.20200000
  1.0000000000  0.0000000000  0.0000000000
  0.0000000000  1.0000000000  0.0000000000
  0.0000000000  0.0000000000  1.0000000000
* h-type functions
    2    2
          0.83400000
          0.38400000
  1.0000000000  0.0000000000
  0.0000000000  1.0000000000

/C.aug-cc-pV5Z.Kendall.15s9p5d4f3g2h.7s6p5d4f3g2h.
R.A. Kendall, T.H. Dunning, R.J. Harrison. J. Chem. Phys. 96 (1992) 6796-6806. doi:10.1063/1.462569
CARBON (15s,9p,5d,4f,3g,2h) -> [7s,6p,5d,4f,3g,2h]
     6.0   5
* s-type functions
   15    7
      96770.00000000
      14500.00000000
       3300.00000000
        935.80000000
        306.20000000
        111.30000000
         43.90000000
         18.40000000
          8.05400000
          3.63700000
          1.65600000
          0.63330000
          0.25450000
          0.10190000
          0.03940000
  0.0000250000 -0.0000050000  0.0000000000  0.0000000000  0.0000000000  0.0000000000  0.0000000000
  0.0001900000 -0.0000410000  0.0000000000  0.0000000000  0.0000000000  0.0000000000  0.0000000000
  0.0010000000 -0.0002130000  0.0000000000  0.0000000000  0.0000000000  0.0000000000  0.0000000000
  0.0041830000 -0.0008970000  0.0000000000  0.0000000000  0.0000000000  0.0000000000  0.0000000000
  0.0148590000 -0.0031870000  0.0000000000  0.0000000000  0.0000000000  0.0000000000  0.0000000000
  0.0453010000 -0.0099610000  0.0000000000  0.0000000000  0.0000000000  0.0000000000  0.0000000000
  0.1165040000 -0.0263750000  0.0000000000  0.0000000000  0.0000000000  0.0000000000  0.0000000000
  0.2402490000 -0.0600010000  0.0000000000  0.0000000000  0.0000000000  0.0000000000  0.0000000000
  0.3587990000 -0.1068250000  0.0000000000  0.0000000000  0.0000000000  0.0000000000  0.0000000000
  0.2939410000 -0.1441660000  0.0000000000  0.0000000000  0.0000000000  0.0000000000  0.0000000000
  0.0776650000 -0.0246442000  1.0000000000  0.0000000000  0.0000000000  0.0000000000  0.0000000000
  0.0023330000  0.3490090000  0.0000000000  1.0000000000  0.0000000000  0.0000000000  0.0000000000
  0.0005050000  0.5587370000  0.0000000000  0.0000000000  1.0000000000  0.0000000000  0.0000000000
  0.0000300000  0.2281020000  0.0000000000  0.0000000000  0.0000000000  1.0000000000  0.0000000000
  0.0000000000  0.0000000000  0.0000000000  0.0000000000  0.0000000000  0.0000000000  1.0000000000
* p-type functions
    9    6
        101.80000000
         24.04000000
          7.57100000
          2.73200000
          1.08500000
          0.44960000
          0.18760000
          0.07606000
          0.02720000
  0.0008910000  0.0000000000  0.0000000000  0.0000000000  0.0000000000  0.0000000000
  0.0069760000  0.0000000000  0.0000000000  0.0000000000  0.0000000000  0.0000000000
  0.0316690000  0.0000000000  0.0000000000  0.0000000000  0.0000000000  0.0000000000
  0.1040060000  0.0000000000  0.0000000000  0.0000000000  0.0000000000  0.0000000000
  0.2416330000  1.0000000000  0.0000000000  0.0000000000  0.0000000000  0.0000000000
  0.3719460000  0.0000000000  1.0000000000  0.0000000000  0.0000000000  0.0000000000
  0.3542000000  0.0000000000  0.0000000000  1.0000000000  0.0000000000  0.0000000000
  0.1315680000  0.0000000000  0.0000000000  0.0000000000  1.0000000000  0.0000000000
  0.0000000000  0.0000000000  0.0000000000  0.0000000000  0.0000000000  1.0000000000
* d-type functions
    5    5
          3.13400000
          1.23300000
          0.48500000
          0.19100000
          0.07010000
  1.0000000000  0.0000000000  0.0000000000  0.0000000000  0.0000000000
  0.0000000000  1.0000000000  0.0000000000  0.0000000000  0.0000000000
  0.0000000000  0.0000000000  1.0000000000  0.0000000000  0.0000000000
  0.0000000000  0.0000000000  0.0000000000  1.0000000000  0.0000000000
  0.0000000000  0.0000000000  0.0000000000  0.0000000000  1.0000000000
* f-type functions
    4    4
          2.00600000
          0.83800000
          0.35000000
          0.13800000
  1.0000000000  0.0000000000  0.0000000000  0.0000000000
  0.0000000000  1.0000000000  0.0000000000  0.0000000000
  0.0000000000  0.0000000000  1.0000000000  0.0000000000
  0.0000000000  0.0000000000  0.0000000000  1.0000000000
* g-type functions
    3    3
          1.75300000
          0.67800000
          0.31900000
  1.0000000000  0.0000000000  0.0000000000
  0.0000000000  1.0000000000  0.0000000000
  0.0000000000  0.0000000000  1.0000000000
* h-type functions
    2    2
          1.25900000
          0.58600000
  1.0000000000  0.0000000000
  0.0000000000  1.0000000000

/N.aug-cc-pV5Z.Kendall.15s9p5d4f3g2h.7s6p5d4f3g2h.
R.A. Kendall, T.H. Dunning, R.J. Harrison. J. Chem. Phys. 96 (1992) 6796-6806. doi:10.1063/1.462569
NITROGEN (15s,9p,5d,4f,3g,2h) -> [7s,6p,5d,4f,3g,2h]
     7.0   5
* s-type functions
   15    7
     129200.00000000
      19350.00000000
       4404.00000000
       1248.00000000
        408.00000000
        148.20000000
         58.50000000
         24.59000000
         10.81000000
          4.88200000
          2.19500000
          0.87150000
          0.35040000
          0.13970000
          0.05180000
  0.0000250000 -0.0000060000  0.0000000000  0.0000000000  0.0000000000  0.0000000000  0.0000000000
  0.0001970000 -0.0000430000  0.0000000000  0.0000000000  0.0000000000  0.0000000000  0.0000000000
  0.0010320000 -0.0002270000  0.0000000000  0.0000000000  0.0000000000  0.0000000000  0.0000000000
  0.0043250000 -0.0009580000  0.0000000000  0.0000000000  0.0000000000  0.0000000000  0.0000000000
  0.0153800000 -0.0034160000  0.0000000000  0.0000000000  0.0000000000  0.0000000000  0.0000000000
  0.0468670000 -0.0106670000  0.0000000000  0.0000000000  0.0000000000  0.0000000000  0.0000000000
  0.1201160000 -0.0282790000  0.0000000000  0.0000000000  0.0000000000  0.0000000000  0.0000000000
  0.2456950000 -0.0640200000  0.0000000000  0.0000000000  0.0000000000  0.0000000000  0.0000000000
  0.3613790000 -0.1139320000  0.0000000000  0.0000000000  0.0000000000  0.0000000000  0.0000000000
  0.2872830000 -0.1469950000  0.0000000000  0.0000000000  0.0000000000  0.0000000000  0.0000000000
  0.0701710000 -0.0072510000  1.0000000000  0.0000000000  0.0000000000  0.0000000000  0.0000000000
  0.0018310000  0.3661830000  0.0000000000  1.0000000000  0.0000000000  0.0000000000  0.0000000000
  0.0008350000  0.5479080000  0.0000000000  0.0000000000  1.0000000000  0.0000000000  0.0000000000
 -0.0000060000  0.2166450000  0.0000000000  0.0000000000  0.0000000000  1.0000000000  0.0000000000
  0.0000000000  0.0000000000  0.0000000000  0.0000000000  0.0000000000  0.0000000000  1.0000000000
* p-type functions
    9    6
        147.00000000
         34.76000000
         11.00000000
          3.99500000
          1.58700000
          0.65330000
          0.26860000
          0.10670000
          0.03690000
  0.0008920000  0.0000000000  0.0000000000  0.0000000000  0.0000000000  0.0000000000
  0.0070820000  0.0000000000  0.0000000000  0.0000000000  0.0000000000  0.0000000000
  0.0328160000  0.0000000000  0.0000000000  0.0000000000  0.0000000000  0.0000000000
  0.1082090000  0.0000000000  0.0000000000  0.0000000000  0.0000000000  0.0000000000
  0.2480940000  1.0000000000  0.0000000000  0.0000000000  0.0000000000  0.0000000000
  0.3745130000  0.0000000000  1.0000000000  0.0000000000  0.0000000000  0.0000000000
  0.3484140000  0.0000000000  0.0000000000  1.0000000000  0.0000000000  0.0000000000
  0.1283400000  0.0000000000  0.0000000000  0.0000000000  1.0000000000  0.0000000000
  0.0000000000  0.0000000000  0.0000000000  0.0000000000  0.0000000000  1.0000000000
* d-type functions
    5    5
          4.64700000
          1.81300000
          0.70700000
          0.27600000
          0.09710000
  1.0000000000  0.0000000000  0.0000000000  0.0000000000  0.0000000000
  0.0000000000  1.0000000000  0.0000000000  0.0000000000  0.0000000000
  0.0000000000  0.0000000000  1.0000000000  0.0000000000  0.0000000000
  0.0000000000  0.0000000000  0.0000000000  1.0000000000  0.0000000000
  0.0000000000  0.0000000000  0.0000000000  0.0000000000  1.0000000000
* f-type functions
    4    4
          2.94200000
          1.20400000
          0.49300000
          0.19200000
  1.0000000000  0.0000000000  0.0000000000  0.0000000000
  0.0000000000  1.0000000000  0.0000000000  0.0000000000
  0.0000000000  0.0000000000  1.0000000000  0.0000000000
  0.0000000000  0.0000000000  0.0000000000  1.0000000000
* g-type functions
    3    3
          2.51100000
          0.94200000
          0.43600000
  1.0000000000  0.0000000000  0.0000000000
  0.0000000000  1.0000000000  0.0000000000
  0.0000000000  0.0000000000  1.0000000000
* h-type functions
    2    2
          1.76800000
          0.78800000
  1.0000000000  0.0000000000
  0.0000000000  1.0000000000

/O.aug-cc-pV5Z.Kendall.15s9p5d4f3g2h.7s6p5d4f3g2h.
R.A. Kendall, T.H. Dunning, R.J. Harrison. J. Chem. Phys. 96 (1992) 6796-6806. doi:10.1063/1.462569
OXYGEN (15s,9p,5d,4f,3g,2h) -> [7s,6p,5d,4f,3g,2h]
     8.0   5
* s-type functions
   15    7
     164200.00000000
      24590.00000000
       5592.00000000
       1582.00000000
        516.10000000
        187.20000000
         73.93000000
         31.22000000
         13.81000000
          6.25600000
          2.77600000
          1.13800000
          0.46000000
          0.18290000
          0.06550000
  0.0000260000 -0.0000060000  0.0000000000  0.0000000000  0.0000000000  0.0000000000  0.0000000000
  0.0002050000 -0.0000460000  0.0000000000  0.0000000000  0.0000000000  0.0000000000  0.0000000000
  0.0010760000 -0.0002440000  0.0000000000  0.0000000000  0.0000000000  0.0000000000  0.0000000000
  0.0045220000 -0.0010310000  0.0000000000  0.0000000000  0.0000000000  0.0000000000  0.0000000000
  0.0161080000 -0.0036880000  0.0000000000  0.0000000000  0.0000000000  0.0000000000  0.0000000000
  0.0490850000 -0.0115140000  0.0000000000  0.0000000000  0.0000000000  0.0000000000  0.0000000000
  0.1248570000 -0.0304350000  0.0000000000  0.0000000000  0.0000000000  0.0000000000  0.0000000000
  0.2516860000 -0.0681470000  0.0000000000  0.0000000000  0.0000000000  0.0000000000  0.0000000000
  0.3624200000 -0.1203680000  0.0000000000  0.0000000000  0.0000000000  0.0000000000  0.0000000000
  0.2790510000 -0.1482600000  0.0000000000  0.0000000000  0.0000000000  0.0000000000  0.0000000000
  0.0635520000  0.0099050000  1.0000000000  0.0000000000  0.0000000000  0.0000000000  0.0000000000
  0.0010630000  0.3842860000  0.0000000000  1.0000000000  0.0000000000  0.0000000000  0.0000000000
  0.0011440000  0.5368050000  0.0000000000  0.0000000000  1.0000000000  0.0000000000  0.0000000000
 -0.0000400000  0.2026870000  0.0000000000  0.0000000000  0.0000000000  1.0000000000  0.0000000000
  0.0000000000  0.0000000000  0.0000000000  0.0000000000  0.0000000000  0.0000000000  1.0000000000
* p-type functions
    9    6
        195.50000000
         46.16000000
         14.58000000
          5.29600000
          2.09400000
          0.84710000
          0.33680000
          0.12850000
          0.04460000
  0.0009180000  0.0000000000  0.0000000000  0.0000000000  0.0000000000  0.0000000000
  0.0073880000  0.0000000000  0.0000000000  0.0000000000  0.0000000000  0.0000000000
  0.0349580000  0.0000000000  0.0000000000  0.0000000000  0.0000000000  0.0000000000
  0.1154310000  0.0000000000  0.0000000000  0.0000000000  0.0000000000  0.0000000000
  0.2568030000  1.0000000000  0.0000000000  0.0000000000  0.0000000000  0.0000000000
  0.3739380000  0.0000000000  1.0000000000  0.0000000000  0.0000000000  0.0000000000
  0.3434470000  0.0000000000  0.0000000000  1.0000000000  0.0000000000  0.0000000000
  0.1297060000  0.0000000000  0.0000000000  0.0000000000  1.0000000000  0.0000000000
  0.0000000000  0.0000000000  0.0000000000  0.0000000000  0.0000000000  1.0000000000
* d-type functions
    5    5
          5.87900000
          2.30700000
          0.90500000
          0.35500000
          0.13100000
  1.0000000000  0.0000000000  0.0000000000  0.0000000000  0.0000000000
  0.0000000000  1.0000000000  0.0000000000  0.0000000000  0.0000000000
  0.0000000000  0.0000000000  1.0000000000  0.0000000000  0.0000000000
  0.0000000000  0.0000000000  0.0000000000  1.0000000000  0.0000000000
  0.0000000000  0.0000000000  0.0000000000  0.0000000000  1.0000000000
* f-type functions
    4    4
          4.01600000
          1.55400000
          0.60100000
          0.23700000
  1.0000000000  0.0000000000  0.0000000000  0.0000000000
  0.0000000000  1.0000000000  0.0000000000  0.0000000000
  0.0000000000  0.0000000000  1.0000000000  0.0000000000
  0.0000000000  0.0000000000  0.0000000000  1.0000000000
* g-type functions
    3    3
          3.35000000
          1.18900000
          0.51700000
  1.0000000000  0.0000000000  0.0000000000
  0.0000000000  1.0000000000  0.0000000000
  0.0000000000  0.0000000000  1.0000000000
* h-type functions
    2    2
          2.31900000
          1.02400000
  1.0000000000  0.0000000000
  0.0000000000  1.0000000000

/F.aug-cc-pV5Z.Kendall.15s9p5d4f3g2h.7s6p5d4f3g2h.
R.A. Kendall, T.H. Dunning, R.J. Harrison. J. Chem. Phys. 96 (1992) 6796-6806. doi:10.1063/1.462569
FLUORINE (15s,9p,5d,4f,3g,2h) -> [7s,6p,5d,4f,3g,2h]
     9.0   5
* s-type functions
   15    7
     211400.00000000
      31660.00000000
       7202.00000000
       2040.00000000
        666.40000000
        242.00000000
         95.53000000
         40.23000000
         17.72000000
          8.00500000
          3.53800000
          1.45800000
          0.58870000
          0.23240000
          0.08060000
  0.0000260000 -0.0000060000  0.0000000000  0.0000000000  0.0000000000  0.0000000000  0.0000000000
  0.0002010000 -0.0000470000  0.0000000000  0.0000000000  0.0000000000  0.0000000000  0.0000000000
  0.0010560000 -0.0002440000  0.0000000000  0.0000000000  0.0000000000  0.0000000000  0.0000000000
  0.0044320000 -0.0010310000  0.0000000000  0.0000000000  0.0000000000  0.0000000000  0.0000000000
  0.0157660000 -0.0036830000  0.0000000000  0.0000000000  0.0000000000  0.0000000000  0.0000000000
  0.0481120000 -0.0115130000  0.0000000000  0.0000000000  0.0000000000  0.0000000000  0.0000000000
  0.1232320000 -0.0306630000  0.0000000000  0.0000000000  0.0000000000  0.0000000000  0.0000000000
  0.2515190000 -0.0695720000  0.0000000000  0.0000000000  0.0000000000  0.0000000000  0.0000000000
  0.3645250000 -0.1239920000  0.0000000000  0.0000000000  0.0000000000  0.0000000000  0.0000000000
  0.2797660000 -0.1502140000  0.0000000000  0.0000000000  0.0000000000  0.0000000000  0.0000000000
  0.0635450000  0.0164600000  1.0000000000  0.0000000000  0.0000000000  0.0000000000  0.0000000000
  0.0011110000  0.3925500000  0.0000000000  1.0000000000  0.0000000000  0.0000000000  0.0000000000
  0.0012580000  0.5321640000  0.0000000000  0.0000000000  1.0000000000  0.0000000000  0.0000000000
 -0.0000350000  0.1965240000  0.0000000000  0.0000000000  0.0000000000  1.0000000000  0.0000000000
  0.0000000000  0.0000000000  0.0000000000  0.0000000000  0.0000000000  0.0000000000  1.0000000000
* p-type functions
    9    6
        241.90000000
         57.17000000
         18.13000000
          6.62400000
          2.62200000
          1.05700000
          0.41760000
          0.15740000
          0.05500000
  0.0010020000  0.0000000000  0.0000000000  0.0000000000  0.0000000000  0.0000000000
  0.0080540000  0.0000000000  0.0000000000  0.0000000000  0.0000000000  0.0000000000
  0.0380480000  0.0000000000  0.0000000000  0.0000000000  0.0000000000  0.0000000000
  0.1237790000  0.0000000000  0.0000000000  0.0000000000  0.0000000000  0.0000000000
  0.2660600000  1.0000000000  0.0000000000  0.0000000000  0.0000000000  0.0000000000
  0.3717960000  0.0000000000  1.0000000000  0.0000000000  0.0000000000  0.0000000000
  0.3328900000  0.0000000000  0.0000000000  1.0000000000  0.0000000000  0.0000000000
  0.1284910000  0.0000000000  0.0000000000  0.0000000000  1.0000000000  0.0000000000
  0.0000000000  0.0000000000  0.0000000000  0.0000000000  0.0000000000  1.0000000000
* d-type functions
    5    5
          7.76000000
          3.03200000
          1.18500000
          0.46300000
          0.17200000
  1.0000000000  0.0000000000  0.0000000000  0.0000000000  0.0000000000
  0.0000000000  1.0000000000  0.0000000000  0.0000000000  0.0000000000
  0.0000000000  0.0000000000  1.0000000000  0.0000000000  0.0000000000
  0.0000000000  0.0000000000  0.0000000000  1.0000000000  0.0000000000
  0.0000000000  0.0000000000  0.0000000000  0.0000000000  1.0000000000
* f-type functions
    4    4
          5.39800000
          2.07800000
          0.80000000
          0.33100000
  1.0000000000  0.0000000000  0.0000000000  0.0000000000
  0.0000000000  1.0000000000  0.0000000000  0.0000000000
  0.0000000000  0.0000000000  1.0000000000  0.0000000000
  0.0000000000  0.0000000000  0.0000000000  1.0000000000
* g-type functions
    3    3
          4.33800000
          1.51300000
          0.66300000
  1.0000000000  0.0000000000  0.0000000000
  0.0000000000  1.0000000000  0.0000000000
  0.0000000000  0.0000000000  1.0000000000
* h-type functions
    2    2
          2.99500000
          1.32600000
  1.0000000000  0.0000000000
  0.0000000000  1.0000000000

/Ne.aug-cc-pV5Z.Kendall.15s9p5d4f3g2h.7s6p5d4f3g2h.
R.A. Kendall, T.H. Dunning, R.J. Harrison. J. Chem. Phys. 96 (1992) 6796-6806. doi:10.1063/1.462569
NEON (15s,9p,5d,4f,3g,2h) -> [7s,6p,5d,4f,3g,2h]
    10.0   5
* s-type functions
   15    7
     262700.00000000
      39350.00000000
       8955.00000000
       2538.00000000
        829.90000000
        301.50000000
        119.00000000
         50.00000000
         21.98000000
          9.89100000
          4.32700000
          1.80400000
          0.72880000
          0.28670000
          0.09570000
  0.0000260000 -0.0000060000  0.0000000000  0.0000000000  0.0000000000  0.0000000000  0.0000000000
  0.0002000000 -0.0000470000  0.0000000000  0.0000000000  0.0000000000  0.0000000000  0.0000000000
  0.0010500000 -0.0002470000  0.0000000000  0.0000000000  0.0000000000  0.0000000000  0.0000000000
  0.0044000000 -0.0010380000  0.0000000000  0.0000000000  0.0000000000  0.0000000000  0.0000000000
  0.0156490000 -0.0037110000  0.0000000000  0.0000000000  0.0000000000  0.0000000000  0.0000000000
  0.0477580000 -0.0115930000  0.0000000000  0.0000000000  0.0000000000  0.0000000000  0.0000000000
  0.1229430000 -0.0310860000  0.0000000000  0.0000000000  0.0000000000  0.0000000000  0.0000000000
  0.2524830000 -0.0709720000  0.0000000000  0.0000000000  0.0000000000  0.0000000000  0.0000000000
  0.3663140000 -0.1272660000  0.0000000000  0.0000000000  0.0000000000  0.0000000000  0.0000000000
  0.2796170000 -0.1512310000  0.0000000000  0.0000000000  0.0000000000  0.0000000000  0.0000000000
  0.0616510000  0.0246660000  1.0000000000  0.0000000000  0.0000000000  0.0000000000  0.0000000000
  0.0009340000  0.3996120000  0.0000000000  1.0000000000  0.0000000000  0.0000000000  0.0000000000
  0.0013670000  0.5266160000  0.0000000000  0.0000000000  1.0000000000  0.0000000000  0.0000000000
 -0.0000380000  0.1908540000  0.0000000000  0.0000000000  0.0000000000  1.0000000000  0.0000000000
  0.0000000000  0.0000000000  0.0000000000  0.0000000000  0.0000000000  0.0000000000  1.0000000000
* p-type functions
    9    6
        299.10000000
         70.73000000
         22.48000000
          8.24600000
          3.26900000
          1.31500000
          0.51580000
          0.19180000
          0.06540000
  0.0010380000  0.0000000000  0.0000000000  0.0000000000  0.0000000000  0.0000000000
  0.0083750000  0.0000000000  0.0000000000  0.0000000000  0.0000000000  0.0000000000
  0.0396930000  0.0000000000  0.0000000000  0.0000000000  0.0000000000  0.0000000000
  0.1280560000  0.0000000000  0.0000000000  0.0000000000  0.0000000000  0.0000000000
  0.2703250000  1.0000000000  0.0000000000  0.0000000000  0.0000000000  0.0000000000
  0.3709630000  0.0000000000  1.0000000000  0.0000000000  0.0000000000  0.0000000000
  0.3284990000  0.0000000000  0.0000000000  1.0000000000  0.0000000000  0.0000000000
  0.1275880000  0.0000000000  0.0000000000  0.0000000000  1.0000000000  0.0000000000
  0.0000000000  0.0000000000  0.0000000000  0.0000000000  0.0000000000  1.0000000000
* d-type functions
    5    5
          9.83700000
          3.84400000
          1.50200000
          0.58700000
          0.21300000
  1.0000000000  0.0000000000  0.0000000000  0.0000000000  0.0000000000
  0.0000000000  1.0000000000  0.0000000000  0.0000000000  0.0000000000
  0.0000000000  0.0000000000  1.0000000000  0.0000000000  0.0000000000
  0.0000000000  0.0000000000  0.0000000000  1.0000000000  0.0000000000
  0.0000000000  0.0000000000  0.0000000000  0.0000000000  1.0000000000
* f-type functions
    4    4
          7.09000000
          2.73800000
          1.05700000
          0.42500000
  1.0000000000  0.0000000000  0.0000000000  0.0000000000
  0.0000000000  1.0000000000  0.0000000000  0.0000000000
  0.0000000000  0.0000000000  1.0000000000  0.0000000000
  0.0000000000  0.0000000000  0.0000000000  1.0000000000
* g-type functions
    3    3
          5.46000000
          1.88000000
          0.80900000
  1.0000000000  0.0000000000  0.0000000000
  0.0000000000  1.0000000000  0.0000000000
  0.0000000000  0.0000000000  1.0000000000
* h-type functions
    2    2
          3.77600000
          1.62800000
  1.0000000000  0.0000000000
  0.0000000000  1.0000000000

/Na.aug-cc-pV5Z.Prascher.21s15p5d4f3g2h.8s7p5d4f3g2h.
B.P. Prascher, D.E. Woon, K.A. Peterson, T.H. Dunning, A.K. Wilson. Theor. Chem. Acc. 128 (2011) 69-82. doi:10.1007/s00214-010-0764-0
SODIUM (21s,15p,5d,4f,3g,2h) -> [8s,7p,5d,4f,3g,2h]
    11.0   5
* s-type functions
   21    8
    2185572.00000000
     327228.40000000
      74466.84000000
      21093.15000000
       6881.89800000
       2484.69600000
        969.22320000
        402.06430000
        175.35450000
         79.65199000
         37.38672000
         18.00194000
          8.72437100
          3.85771500
          1.81568600
          0.83825400
          0.38193500
          0.07167900
          0.03391600
          0.01652500
          0.00510000
  0.0000020000 -0.0000010000  0.0000000000  0.0000000000  0.0000000000  0.0000000000  0.0000000000  0.0000000000
  0.0000180000 -0.0000040000  0.0000010000  0.0000000000  0.0000000000  0.0000000000  0.0000000000  0.0000000000
  0.0000950000 -0.0000230000  0.0000030000  0.0000000000  0.0000000000  0.0000000000  0.0000000000  0.0000000000
  0.0004010000 -0.0000980000  0.0000150000  0.0000000000  0.0000000000  0.0000000000  0.0000000000  0.0000000000
  0.0014590000 -0.0003570000  0.0000540000  0.0000000000  0.0000000000  0.0000000000  0.0000000000  0.0000000000
  0.0047460000 -0.0011650000  0.0001750000  0.0000000000  0.0000000000  0.0000000000  0.0000000000  0.0000000000
  0.0140310000 -0.0034640000  0.0005200000  0.0000000000  0.0000000000  0.0000000000  0.0000000000  0.0000000000
  0.0377330000 -0.0094950000  0.0014310000  0.0000000000  0.0000000000  0.0000000000  0.0000000000  0.0000000000
  0.0907020000 -0.0235870000  0.0035540000  0.0000000000  0.0000000000  0.0000000000  0.0000000000  0.0000000000
  0.1864660000 -0.0523940000  0.0079540000  0.0000000000  0.0000000000  0.0000000000  0.0000000000  0.0000000000
  0.3018370000 -0.0980280000  0.0149550000  0.0000000000  0.0000000000  0.0000000000  0.0000000000  0.0000000000
  0.3238300000 -0.1436730000  0.0224720000  0.0000000000  0.0000000000  0.0000000000  0.0000000000  0.0000000000
  0.1687000000 -0.1022980000  0.0162050000  0.0000000000  0.0000000000  0.0000000000  0.0000000000  0.0000000000
  0.0230830000  0.1380290000 -0.0235500000  0.0000000000  0.0000000000  0.0000000000  0.0000000000  0.0000000000
 -0.0001470000  0.4290060000 -0.0801200000  0.0000000000  0.0000000000  0.0000000000  0.0000000000  0.0000000000
  0.0010990000  0.4478130000 -0.1129210000  0.0000000000  0.0000000000  0.0000000000  0.0000000000  0.0000000000
 -0.0001010000  0.1445430000 -0.1329890000  1.0000000000  0.0000000000  0.0000000000  0.0000000000  0.0000000000
  0.0000610000  0.0026170000  0.4175160000  0.0000000000  1.0000000000  0.0000000000  0.0000000000  0.0000000000
 -0.0000530000 -0.0011920000  0.5494430000  0.0000000000  0.0000000000  1.0000000000  0.0000000000  0.0000000000
  0.0000180000  0.0004400000  0.1481100000  0.0000000000  0.0000000000  0.0000000000  1.0000000000  0.0000000000
  0.0000000000  0.0000000000  0.0000000000  0.0000000000  0.0000000000  0.0000000000  0.0000000000  1.0000000000
* p-type functions
   15    7
       1119.57800000
        265.32390000
         85.99553000
         32.53759000
         13.51565000
          5.96685600
          2.70004500
          1.21851200
          0.54218700
          0.22741300
          0.13304000
          0.05757700
          0.02597100
          0.01190100
          0.00550000
  0.0001620000 -0.0000160000  0.0000000000  0.0000000000  0.0000000000  0.0000000000  0.0000000000
  0.0014080000 -0.0001400000  0.0000000000  0.0000000000  0.0000000000  0.0000000000  0.0000000000
  0.0075860000 -0.0007540000  0.0000000000  0.0000000000  0.0000000000  0.0000000000  0.0000000000
  0.0296150000 -0.0029680000  0.0000000000  0.0000000000  0.0000000000  0.0000000000  0.0000000000
  0.0884770000 -0.0089190000  0.0000000000  0.0000000000  0.0000000000  0.0000000000  0.0000000000
  0.1955190000 -0.0200290000  0.0000000000  0.0000000000  0.0000000000  0.0000000000  0.0000000000
  0.3066210000 -0.0313800000  0.0000000000  0.0000000000  0.0000000000  0.0000000000  0.0000000000
  0.3412420000 -0.0364890000  0.0000000000  0.0000000000  0.0000000000  0.0000000000  0.0000000000
  0.2296900000 -0.0296250000  0.0000000000  0.0000000000  0.0000000000  0.0000000000  0.0000000000
  0.0549210000 -0.0101460000  0.0000000000  0.0000000000  0.0000000000  0.0000000000  0.0000000000
 -0.0034410000  0.0821280000  1.0000000000  0.0000000000  0.0000000000  0.0000000000  0.0000000000
  0.0023400000  0.3345530000  0.0000000000  1.0000000000  0.0000000000  0.0000000000  0.0000000000
 -0.0006620000  0.5081420000  0.0000000000  0.0000000000  1.0000000000  0.0000000000  0.0000000000
  0.0001990000  0.1966360000  0.0000000000  0.0000000000  0.0000000000  1.0000000000  0.0000000000
  0.0000000000  0.0000000000  0.0000000000  0.0000000000  0.0000000000  0.0000000000  1.0000000000
* d-type functions
    5    5
          0.48980000
          0.22830000
          0.10640000
          0.04960000
          0.02290000
  1.0000000000  0.0000000000  0.0000000000  0.0000000000  0.0000000000
  0.0000000000  1.0000000000  0.0000000000  0.0000000000  0.0000000000
  0.0000000000  0.0000000000  1.0000000000  0.0000000000  0.0000000000
  0.0000000000  0.0000000000  0.0000000000  1.0000000000  0.0000000000
  0.0000000000  0.0000000000  0.0000000000  0.0000000000  1.0000000000
* f-type functions
    4    4
          0.24930000
          0.13570000
          0.07390000
          0.04140000
  1.0000000000  0.0000000000  0.0000000000  0.0000000000
  0.0000000000  1.0000000000  0.0000000000  0.0000000000
  0.0000000000  0.0000000000  1.0000000000  0.0000000000
  0.0000000000  0.0000000000  0.0000000000  1.0000000000
* g-type functions
    3    3
          0.23180000
          0.12220000
          0.07320000
  1.0000000000  0.0000000000  0.0000000000
  0.0000000000  1.0000000000  0.0000000000
  0.0000000000  0.0000000000  1.0000000000
* h-type functions
    2    2
          0.22400000
          0.10480000
  1.0000000000  0.0000000000
  0.0000000000  1.0000000000

/Mg.aug-cc-pV5Z.Prascher.21s15p5d4f3g2h.8s7p5d4f3g2h.
B.P. Prascher, D.E. Woon, K.A. Peterson, T.H. Dunning, A.K. Wilson. Theor. Chem. Acc. 128 (2011) 69-82. doi:10.1007/s00214-010-0764-0
MAGNESIUM (21s,15p,5d,4f,3g,2h) -> [8s,7p,5d,4f,3g,2h]
    12.0   5
* s-type functions
   21    8
    2968000.00000000
     444300.00000000
     101100.00000000
      28640.00000000
       9343.00000000
       3373.00000000
       1316.00000000
        545.80000000
        238.10000000
        108.20000000
         50.80000000
         24.48000000
         11.93000000
          5.54300000
          2.67500000
          1.26300000
          0.58830000
          0.14960000
          0.06700000
          0.02952000
          0.01080000
  1.9717700e-6 -4.9816000e-7  9.6017500e-8  0.0000000000  0.0000000000  0.0000000000  0.0000000000  0.0000000000
  0.0000153362 -3.8756300e-6  7.4616400e-7  0.0000000000  0.0000000000  0.0000000000  0.0000000000  0.0000000000
  0.0000806852 -0.0000203854  3.9311900e-6  0.0000000000  0.0000000000  0.0000000000  0.0000000000  0.0000000000
  0.0003407710 -0.0000861659  0.0000165812  0.0000000000  0.0000000000  0.0000000000  0.0000000000  0.0000000000
  0.0012419400 -0.0003141760  0.0000606257  0.0000000000  0.0000000000  0.0000000000  0.0000000000  0.0000000000
  0.0040412400 -0.0010257700  0.0001973220  0.0000000000  0.0000000000  0.0000000000  0.0000000000  0.0000000000
  0.0119797000 -0.0030581600  0.0005908810  0.0000000000  0.0000000000  0.0000000000  0.0000000000  0.0000000000
  0.0324253000 -0.0084106300  0.0016190400  0.0000000000  0.0000000000  0.0000000000  0.0000000000  0.0000000000
  0.0789332000 -0.0211202000  0.0040975600  0.0000000000  0.0000000000  0.0000000000  0.0000000000  0.0000000000
  0.1665750000 -0.0476882000  0.0092298900  0.0000000000  0.0000000000  0.0000000000  0.0000000000  0.0000000000
  0.2828710000 -0.0924119000  0.0182168000  0.0000000000  0.0000000000  0.0000000000  0.0000000000  0.0000000000
  0.3318900000 -0.1425480000  0.0282884000  0.0000000000  0.0000000000  0.0000000000  0.0000000000  0.0000000000
  0.2032870000 -0.1261680000  0.0265059000  0.0000000000  0.0000000000  0.0000000000  0.0000000000  0.0000000000
  0.0382897000  0.0715282000 -0.0172053000  0.0000000000  0.0000000000  0.0000000000  0.0000000000  0.0000000000
  0.0003089160  0.3830390000 -0.0885917000  0.0000000000  0.0000000000  0.0000000000  0.0000000000  0.0000000000
  0.0013890700  0.4901330000 -0.1638710000  0.0000000000  0.0000000000  0.0000000000  0.0000000000  0.0000000000
 -0.0001361590  0.2043810000 -0.1595060000  1.0000000000  0.0000000000  0.0000000000  0.0000000000  0.0000000000
  0.0000855322  0.0070223100  0.3217150000  0.0000000000  1.0000000000  0.0000000000  0.0000000000  0.0000000000
 -0.0000569102 -0.0026787400  0.5913730000  0.0000000000  0.0000000000  1.0000000000  0.0000000000  0.0000000000
  0.0000177259  0.0006936900  0.2368660000  0.0000000000  0.0000000000  0.0000000000  1.0000000000  0.0000000000
  0.0000000000  0.0000000000  0.0000000000  0.0000000000  0.0000000000  0.0000000000  0.0000000000  1.0000000000
* p-type functions
   15    7
       1441.00000000
        341.40000000
        110.70000000
         41.97000000
         17.49000000
          7.75300000
          3.53400000
          1.61400000
          0.72990000
          0.30290000
          0.15830000
          0.08190000
          0.04123000
          0.01988000
          0.00710000
  0.0001524070 -0.0000241031  0.0000000000  0.0000000000  0.0000000000  0.0000000000  0.0000000000
  0.0013276400 -0.0002108090  0.0000000000  0.0000000000  0.0000000000  0.0000000000  0.0000000000
  0.0072193700 -0.0011453000  0.0000000000  0.0000000000  0.0000000000  0.0000000000  0.0000000000
  0.0285205000 -0.0045641700  0.0000000000  0.0000000000  0.0000000000  0.0000000000  0.0000000000
  0.0865346000 -0.0139603000  0.0000000000  0.0000000000  0.0000000000  0.0000000000  0.0000000000
  0.1949500000 -0.0321105000  0.0000000000  0.0000000000  0.0000000000  0.0000000000  0.0000000000
  0.3120510000 -0.0516217000  0.0000000000  0.0000000000  0.0000000000  0.0000000000  0.0000000000
  0.3484760000 -0.0613713000  0.0000000000  0.0000000000  0.0000000000  0.0000000000  0.0000000000
  0.2188860000 -0.0442465000  0.0000000000  0.0000000000  0.0000000000  0.0000000000  0.0000000000
  0.0435579000  0.0523191000  0.0000000000  0.0000000000  0.0000000000  0.0000000000  0.0000000000
 -0.0037374700  0.2216920000  1.0000000000  0.0000000000  0.0000000000  0.0000000000  0.0000000000
  0.0030512300  0.3952550000  0.0000000000  1.0000000000  0.0000000000  0.0000000000  0.0000000000
 -0.0008669220  0.3640780000  0.0000000000  0.0000000000  1.0000000000  0.0000000000  0.0000000000
  0.0002305170  0.0977952000  0.0000000000  0.0000000000  0.0000000000  1.0000000000  0.0000000000
  0.0000000000  0.0000000000  0.0000000000  0.0000000000  0.0000000000  0.0000000000  1.0000000000
* d-type functions
    5    5
          1.08370000
          0.49680000
          0.22780000
          0.10440000
          0.03710000
  1.0000000000  0.0000000000  0.0000000000  0.0000000000  0.0000000000
  0.0000000000  1.0000000000  0.0000000000  0.0000000000  0.0000000000
  0.0000000000  0.0000000000  1.0000000000  0.0000000000  0.0000000000
  0.0000000000  0.0000000000  0.0000000000  1.0000000000  0.0000000000
  0.0000000000  0.0000000000  0.0000000000  0.0000000000  1.0000000000
* f-type functions
    4    4
          0.49170000
          0.27640000
          0.15540000
          0.05790000
  1.0000000000  0.0000000000  0.0000000000  0.0000000000
  0.0000000000  1.0000000000  0.0000000000  0.0000000000
  0.0000000000  0.0000000000  1.0000000000  0.0000000000
  0.0000000000  0.0000000000  0.0000000000  1.0000000000
* g-type functions
    3    3
          0.44270000
          0.23110000
          0.09470000
  1.0000000000  0.0000000000  0.0000000000
  0.0000000000  1.0000000000  0.0000000000
  0.0000000000  0.0000000000  1.0000000000
* h-type functions
    2    2
          0.37310000
          0.15770000
  1.0000000000  0.0000000000
  0.0000000000  1.0000000000

/Al.aug-cc-pV5Z.Woon.21s13p5d4f3g2h.8s7p5d4f3g2h.
D.E. Woon, T.H. Dunning. J. Chem. Phys. 98 (1993) 1358-1371. doi:10.1063/1.464303
ALUMINIUM (21s,13p,5d,4f,3g,2h) -> [8s,7p,5d,4f,3g,2h]
    13.0   5
* s-type functions
   21    8
    3269000.00000000
     489400.00000000
     111400.00000000
      31560.00000000
      10320.00000000
       3731.00000000
       1456.00000000
        604.10000000
        263.50000000
        119.80000000
         56.32000000
         27.19000000
         13.26000000
          6.05200000
          2.98100000
          1.47600000
          0.73340000
          0.24470000
          0.10880000
          0.04672000
          0.01770000
  2.1396200e-6 -5.5602600e-7  1.2842300e-7  0.0000000000  0.0000000000  0.0000000000  0.0000000000  0.0000000000
  0.0000166264 -4.3230300e-6  9.9751400e-7  0.0000000000  0.0000000000  0.0000000000  0.0000000000  0.0000000000
  0.0000875168 -0.0000227413  0.0000052548  0.0000000000  0.0000000000  0.0000000000  0.0000000000  0.0000000000
  0.0003689900 -0.0000960116  0.0000221450  0.0000000000  0.0000000000  0.0000000000  0.0000000000  0.0000000000
  0.0013390300 -0.0003483760  0.0000805464  0.0000000000  0.0000000000  0.0000000000  0.0000000000  0.0000000000
  0.0043563600 -0.0011383600  0.0002625060  0.0000000000  0.0000000000  0.0000000000  0.0000000000  0.0000000000
  0.0128955000 -0.0033874400  0.0007842200  0.0000000000  0.0000000000  0.0000000000  0.0000000000  0.0000000000
  0.0348201000 -0.0093150500  0.0021503900  0.0000000000  0.0000000000  0.0000000000  0.0000000000  0.0000000000
  0.0843530000 -0.0233023000  0.0054197400  0.0000000000  0.0000000000  0.0000000000  0.0000000000  0.0000000000
  0.1759070000 -0.0523486000  0.0121686000  0.0000000000  0.0000000000  0.0000000000  0.0000000000  0.0000000000
  0.2920910000 -0.0999499000  0.0236823000  0.0000000000  0.0000000000  0.0000000000  0.0000000000  0.0000000000
  0.3282200000 -0.1505600000  0.0360937000  0.0000000000  0.0000000000  0.0000000000  0.0000000000  0.0000000000
  0.1869270000 -0.1191210000  0.0303284000  0.0000000000  0.0000000000  0.0000000000  0.0000000000  0.0000000000
  0.0310430000  0.1080910000 -0.0309034000  0.0000000000  0.0000000000  0.0000000000  0.0000000000  0.0000000000
 -0.0005089220  0.4111290000 -0.1191260000  0.0000000000  0.0000000000  0.0000000000  0.0000000000  0.0000000000
  0.0014883600  0.4572140000 -0.2111450000  0.0000000000  0.0000000000  0.0000000000  0.0000000000  0.0000000000
 -0.0002782410  0.1759380000 -0.1579440000  1.0000000000  0.0000000000  0.0000000000  0.0000000000  0.0000000000
  0.0001187520  0.0077061000  0.3390380000  0.0000000000  1.0000000000  0.0000000000  0.0000000000  0.0000000000
 -0.0000661500 -0.0016616800  0.6130970000  0.0000000000  0.0000000000  1.0000000000  0.0000000000  0.0000000000
  0.0000175954  0.0004453470  0.2351680000  0.0000000000  0.0000000000  0.0000000000  1.0000000000  0.0000000000
  0.0000000000  0.0000000000  0.0000000000  0.0000000000  0.0000000000  0.0000000000  0.0000000000  1.0000000000
* p-type functions
   13    7
       1461.00000000
        346.20000000
        112.20000000
         42.51000000
         17.72000000
          7.85200000
          3.57100000
          1.63700000
          0.73820000
          0.25770000
          0.09773000
          0.03690000
          0.01150000
  0.0002086130 -0.0000371947  0.0000000000  0.0000000000  0.0000000000  0.0000000000  0.0000000000
  0.0018100500 -0.0003285630  0.0000000000  0.0000000000  0.0000000000  0.0000000000  0.0000000000
  0.0097343300 -0.0017426400  0.0000000000  0.0000000000  0.0000000000  0.0000000000  0.0000000000
  0.0378266000 -0.0069482800  0.0000000000  0.0000000000  0.0000000000  0.0000000000  0.0000000000
  0.1108980000 -0.0202807000  0.0000000000  0.0000000000  0.0000000000  0.0000000000  0.0000000000
  0.2342950000 -0.0448657000  0.0000000000  0.0000000000  0.0000000000  0.0000000000  0.0000000000
  0.3452450000 -0.0643278000  0.0000000000  0.0000000000  0.0000000000  0.0000000000  0.0000000000
  0.3314300000 -0.0752666000  0.0000000000  0.0000000000  0.0000000000  0.0000000000  0.0000000000
  0.1470640000  0.0006160080  1.0000000000  0.0000000000  0.0000000000  0.0000000000  0.0000000000
  0.0121411000  0.2878190000  0.0000000000  1.0000000000  0.0000000000  0.0000000000  0.0000000000
 -0.0008716390  0.5430300000  0.0000000000  0.0000000000  1.0000000000  0.0000000000  0.0000000000
  0.0004379570  0.3018650000  0.0000000000  0.0000000000  0.0000000000  1.0000000000  0.0000000000
  0.0000000000  0.0000000000  0.0000000000  0.0000000000  0.0000000000  0.0000000000  1.0000000000
* d-type functions
    5    5
          1.31700000
          0.52600000
          0.21000000
          0.08400000
          0.02940000
  1.0000000000  0.0000000000  0.0000000000  0.0000000000  0.0000000000
  0.0000000000  1.0000000000  0.0000000000  0.0000000000  0.0000000000
  0.0000000000  0.0000000000  1.0000000000  0.0000000000  0.0000000000
  0.0000000000  0.0000000000  0.0000000000  1.0000000000  0.0000000000
  0.0000000000  0.0000000000  0.0000000000  0.0000000000  1.0000000000
* f-type functions
    4    4
          0.13000000
          0.25800000
          0.51300000
          0.05090000
  1.0000000000  0.0000000000  0.0000000000  0.0000000000
  0.0000000000  1.0000000000  0.0000000000  0.0000000000
  0.0000000000  0.0000000000  1.0000000000  0.0000000000
  0.0000000000  0.0000000000  0.0000000000  1.0000000000
* g-type functions
    3    3
          0.25200000
          0.54300000
          0.10690000
  1.0000000000  0.0000000000  0.0000000000
  0.0000000000  1.0000000000  0.0000000000
  0.0000000000  0.0000000000  1.0000000000
* h-type functions
    2    2
          0.44600000
          0.22700000
  1.0000000000  0.0000000000
  0.0000000000  1.0000000000

/Si.aug-cc-pV5Z.Woon.21s13p5d4f3g2h.8s7p5d4f3g2h.
D.E. Woon, T.H. Dunning. J. Chem. Phys. 98 (1993) 1358-1371. doi:10.1063/1.464303
SILICON (21s,13p,5d,4f,3g,2h) -> [8s,7p,5d,4f,3g,2h]
    14.0   5
* s-type functions
   21    8
    3948000.00000000
     591100.00000000
     134500.00000000
      38120.00000000
      12460.00000000
       4504.00000000
       1758.00000000
        729.10000000
        318.00000000
        144.60000000
         67.97000000
         32.82000000
         16.03000000
          7.39600000
          3.66100000
          1.82300000
          0.91470000
          0.33930000
          0.15000000
          0.06438000
          0.02600000
  2.0371200e-6 -5.4208500e-7  1.3890700e-7  0.0000000000  0.0000000000  0.0000000000  0.0000000000  0.0000000000
  0.0000158394 -4.2167700e-6  1.0795300e-6  0.0000000000  0.0000000000  0.0000000000  0.0000000000  0.0000000000
  0.0000833590 -0.0000221813  5.6862800e-6  0.0000000000  0.0000000000  0.0000000000  0.0000000000  0.0000000000
  0.0003513610 -0.0000936028  0.0000239537  0.0000000000  0.0000000000  0.0000000000  0.0000000000  0.0000000000
  0.0012766000 -0.0003401160  0.0000872409  0.0000000000  0.0000000000  0.0000000000  0.0000000000  0.0000000000
  0.0041519100 -0.0011106100  0.0002841630  0.0000000000  0.0000000000  0.0000000000  0.0000000000  0.0000000000
  0.0123030000 -0.0033087800  0.0008498400  0.0000000000  0.0000000000  0.0000000000  0.0000000000  0.0000000000
  0.0333102000 -0.0091160200  0.0023352700  0.0000000000  0.0000000000  0.0000000000  0.0000000000  0.0000000000
  0.0809845000 -0.0228790000  0.0059046600  0.0000000000  0.0000000000  0.0000000000  0.0000000000  0.0000000000
  0.1702900000 -0.0517119000  0.0133461000  0.0000000000  0.0000000000  0.0000000000  0.0000000000  0.0000000000
  0.2868790000 -0.0999091000  0.0262889000  0.0000000000  0.0000000000  0.0000000000  0.0000000000  0.0000000000
  0.3303400000 -0.1527470000  0.0407426000  0.0000000000  0.0000000000  0.0000000000  0.0000000000  0.0000000000
  0.1966020000 -0.1275080000  0.0361476000  0.0000000000  0.0000000000  0.0000000000  0.0000000000  0.0000000000
  0.0354535000  0.0946963000 -0.0303923000  0.0000000000  0.0000000000  0.0000000000  0.0000000000  0.0000000000
 -0.0005352040  0.4140360000 -0.1359610000  0.0000000000  0.0000000000  0.0000000000  0.0000000000  0.0000000000
  0.0016146500  0.4679340000 -0.2501440000  0.0000000000  0.0000000000  0.0000000000  0.0000000000  0.0000000000
 -0.0003727390  0.1739270000 -0.1580500000  1.0000000000  0.0000000000  0.0000000000  0.0000000000  0.0000000000
  0.0001462260  0.0084389500  0.3696550000  0.0000000000  1.0000000000  0.0000000000  0.0000000000  0.0000000000
 -0.0000789446 -0.0009980670  0.6177180000  0.0000000000  0.0000000000  1.0000000000  0.0000000000  0.0000000000
  0.0000192801  0.0003620960  0.2225140000  0.0000000000  0.0000000000  0.0000000000  1.0000000000  0.0000000000
  0.0000000000  0.0000000000  0.0000000000  0.0000000000  0.0000000000  0.0000000000  0.0000000000  1.0000000000
* p-type functions
   13    7
       1780.00000000
        421.80000000
        136.70000000
         51.81000000
         21.60000000
          9.56300000
          4.35000000
          2.00600000
          0.92050000
          0.35000000
          0.13810000
          0.05338000
          0.01920000
  0.0002012060 -0.0000427152  0.0000000000  0.0000000000  0.0000000000  0.0000000000  0.0000000000
  0.0017493700 -0.0003770390  0.0000000000  0.0000000000  0.0000000000  0.0000000000  0.0000000000
  0.0094814100 -0.0020224000  0.0000000000  0.0000000000  0.0000000000  0.0000000000  0.0000000000
  0.0372313000 -0.0081283300  0.0000000000  0.0000000000  0.0000000000  0.0000000000  0.0000000000
  0.1107630000 -0.0242272000  0.0000000000  0.0000000000  0.0000000000  0.0000000000  0.0000000000
  0.2379330000 -0.0543825000  0.0000000000  0.0000000000  0.0000000000  0.0000000000  0.0000000000
  0.3536910000 -0.0799051000  0.0000000000  0.0000000000  0.0000000000  0.0000000000  0.0000000000
  0.3288390000 -0.0888958000  0.0000000000  0.0000000000  0.0000000000  0.0000000000  0.0000000000
  0.1323730000  0.0183997000  1.0000000000  0.0000000000  0.0000000000  0.0000000000  0.0000000000
  0.0103300000  0.3350960000  0.0000000000  1.0000000000  0.0000000000  0.0000000000  0.0000000000
 -0.0001503050  0.5322880000  0.0000000000  0.0000000000  1.0000000000  0.0000000000  0.0000000000
  0.0002658090  0.2543740000  0.0000000000  0.0000000000  0.0000000000  1.0000000000  0.0000000000
  0.0000000000  0.0000000000  0.0000000000  0.0000000000  0.0000000000  0.0000000000  1.0000000000
* d-type functions
    5    5
          0.12600000
          0.32100000
          0.81700000
          2.08200000
          0.04680000
  1.0000000000  0.0000000000  0.0000000000  0.0000000000  0.0000000000
  0.0000000000  1.0000000000  0.0000000000  0.0000000000  0.0000000000
  0.0000000000  0.0000000000  1.0000000000  0.0000000000  0.0000000000
  0.0000000000  0.0000000000  0.0000000000  1.0000000000  0.0000000000
  0.0000000000  0.0000000000  0.0000000000  0.0000000000  1.0000000000
* f-type functions
    4    4
          0.16900000
          0.34100000
          0.68800000
          0.07350000
  1.0000000000  0.0000000000  0.0000000000  0.0000000000
  0.0000000000  1.0000000000  0.0000000000  0.0000000000
  0.0000000000  0.0000000000  1.0000000000  0.0000000000
  0.0000000000  0.0000000000  0.0000000000  1.0000000000
* g-type functions
    3    3
          0.32000000
          0.70500000
          0.15100000
  1.0000000000  0.0000000000  0.0000000000
  0.0000000000  1.0000000000  0.0000000000
  0.0000000000  0.0000000000  1.0000000000
* h-type functions
    2    2
          0.58300000
          0.32300000
  1.0000000000  0.0000000000
  0.0000000000  1.0000000000

/P.aug-cc-pV5Z.Woon.21s13p5d4f3g2h.8s7p5d4f3g2h.
D.E. Woon, T.H. Dunning. J. Chem. Phys. 98 (1993) 1358-1371. doi:10.1063/1.464303
PHOSPHORUS (21s,13p,5d,4f,3g,2h) -> [8s,7p,5d,4f,3g,2h]
    15.0   5
* s-type functions
   21    8
    4666000.00000000
     698600.00000000
     159000.00000000
      45040.00000000
      14720.00000000
       5323.00000000
       2076.00000000
        861.10000000
        375.70000000
        170.80000000
         80.29000000
         38.77000000
         18.93000000
          8.79600000
          4.35800000
          2.17400000
          1.09500000
          0.44000000
          0.19450000
          0.08376000
          0.03350000
  1.9675900e-6 -5.3415300e-7  1.4677600e-7  0.0000000000  0.0000000000  0.0000000000  0.0000000000  0.0000000000
  0.0000152963 -4.1542200e-6  1.1406400e-6  0.0000000000  0.0000000000  0.0000000000  0.0000000000  0.0000000000
  0.0000804826 -0.0000218484  6.0056800e-6  0.0000000000  0.0000000000  0.0000000000  0.0000000000  0.0000000000
  0.0003397370 -0.0000923272  0.0000253427  0.0000000000  0.0000000000  0.0000000000  0.0000000000  0.0000000000
  0.0012329100 -0.0003351090  0.0000921606  0.0000000000  0.0000000000  0.0000000000  0.0000000000  0.0000000000
  0.0040134500 -0.0010950800  0.0003005630  0.0000000000  0.0000000000  0.0000000000  0.0000000000  0.0000000000
  0.0119124000 -0.0032679800  0.0008998840  0.0000000000  0.0000000000  0.0000000000  0.0000000000  0.0000000000
  0.0322511000 -0.0089995100  0.0024735400  0.0000000000  0.0000000000  0.0000000000  0.0000000000  0.0000000000
  0.0786643000 -0.0226528000  0.0062681200  0.0000000000  0.0000000000  0.0000000000  0.0000000000  0.0000000000
  0.1664580000 -0.0514650000  0.0142598000  0.0000000000  0.0000000000  0.0000000000  0.0000000000  0.0000000000
  0.2830390000 -0.1001860000  0.0282769000  0.0000000000  0.0000000000  0.0000000000  0.0000000000  0.0000000000
  0.3319420000 -0.1550750000  0.0445124000  0.0000000000  0.0000000000  0.0000000000  0.0000000000  0.0000000000
  0.2033520000 -0.1338180000  0.0407217000  0.0000000000  0.0000000000  0.0000000000  0.0000000000  0.0000000000
  0.0383183000  0.0878361000 -0.0301908000  0.0000000000  0.0000000000  0.0000000000  0.0000000000  0.0000000000
 -0.0003847200  0.4225810000 -0.1528940000  0.0000000000  0.0000000000  0.0000000000  0.0000000000  0.0000000000
  0.0015874400  0.4748990000 -0.2824110000  0.0000000000  0.0000000000  0.0000000000  0.0000000000  0.0000000000
 -0.0004133800  0.1650020000 -0.1485220000  1.0000000000  0.0000000000  0.0000000000  0.0000000000  0.0000000000
  0.0001528370  0.0084686200  0.3935630000  0.0000000000  1.0000000000  0.0000000000  0.0000000000  0.0000000000
 -0.0000827031 -0.0002917620  0.6173270000  0.0000000000  0.0000000000  1.0000000000  0.0000000000  0.0000000000
  0.0000184133  0.0002853410  0.2146120000  0.0000000000  0.0000000000  0.0000000000  1.0000000000  0.0000000000
  0.0000000000  0.0000000000  0.0000000000  0.0000000000  0.0000000000  0.0000000000  0.0000000000  1.0000000000
* p-type functions
   13    7
       2010.00000000
        476.30000000
        154.40000000
         58.51000000
         24.40000000
         10.80000000
          4.91300000
          2.26900000
          1.04300000
          0.43130000
          0.17670000
          0.07009000
          0.02530000
  0.0002159150 -0.0000511444  0.0000000000  0.0000000000  0.0000000000  0.0000000000  0.0000000000
  0.0018753600 -0.0004483560  0.0000000000  0.0000000000  0.0000000000  0.0000000000  0.0000000000
  0.0101742000 -0.0024234000  0.0000000000  0.0000000000  0.0000000000  0.0000000000  0.0000000000
  0.0399856000 -0.0096982600  0.0000000000  0.0000000000  0.0000000000  0.0000000000  0.0000000000
  0.1185630000 -0.0290965000  0.0000000000  0.0000000000  0.0000000000  0.0000000000  0.0000000000
  0.2518160000 -0.0641726000  0.0000000000  0.0000000000  0.0000000000  0.0000000000  0.0000000000
  0.3665650000 -0.0945071000  0.0000000000  0.0000000000  0.0000000000  0.0000000000  0.0000000000
  0.3161770000 -0.0934700000  0.0000000000  0.0000000000  0.0000000000  0.0000000000  0.0000000000
  0.1047000000  0.0520611000  1.0000000000  0.0000000000  0.0000000000  0.0000000000  0.0000000000
  0.0060986200  0.3746240000  0.0000000000  1.0000000000  0.0000000000  0.0000000000  0.0000000000
  0.0005020770  0.5090970000  0.0000000000  0.0000000000  1.0000000000  0.0000000000  0.0000000000
 -0.0000295618  0.2151160000  0.0000000000  0.0000000000  0.0000000000  1.0000000000  0.0000000000
  0.0000000000  0.0000000000  0.0000000000  0.0000000000  0.0000000000  0.0000000000  1.0000000000
* d-type functions
    5    5
          0.16600000
          0.41800000
          1.05400000
          2.65600000
          0.06240000
  1.0000000000  0.0000000000  0.0000000000  0.0000000000  0.0000000000
  0.0000000000  1.0000000000  0.0000000000  0.0000000000  0.0000000000
  0.0000000000  0.0000000000  1.0000000000  0.0000000000  0.0000000000
  0.0000000000  0.0000000000  0.0000000000  1.0000000000  0.0000000000
  0.0000000000  0.0000000000  0.0000000000  0.0000000000  1.0000000000
* f-type functions
    4    4
          0.21900000
          0.45000000
          0.92300000
          0.09500000
  1.0000000000  0.0000000000  0.0000000000  0.0000000000
  0.0000000000  1.0000000000  0.0000000000  0.0000000000
  0.0000000000  0.0000000000  1.0000000000  0.0000000000
  0.0000000000  0.0000000000  0.0000000000  1.0000000000
* g-type functions
    3    3
          0.41200000
          0.90300000
          0.18400000
  1.0000000000  0.0000000000  0.0000000000
  0.0000000000  1.0000000000  0.0000000000
  0.0000000000  0.0000000000  1.0000000000
* h-type functions
    2    2
          0.74500000
          0.37200000
  1.0000000000  0.0000000000
  0.0000000000  1.0000000000

/S.aug-cc-pV5Z.Woon.21s13p5d4f3g2h.8s7p5d4f3g2h.
D.E. Woon, T.H. Dunning. J. Chem. Phys. 98 (1993) 1358-1371. doi:10.1063/1.464303
SULFUR (21s,13p,5d,4f,3g,2h) -> [8s,7p,5d,4f,3g,2h]
    16.0   5
* s-type functions
   21    8
    5481000.00000000
     820600.00000000
     186700.00000000
      52880.00000000
      17250.00000000
       6226.00000000
       2429.00000000
       1007.00000000
        439.50000000
        199.80000000
         93.92000000
         45.34000000
         22.15000000
         10.34000000
          5.11900000
          2.55300000
          1.28200000
          0.54500000
          0.24110000
          0.10350000
          0.04200000
  1.8933800e-6 -5.2291200e-7  1.5182300e-7  0.0000000000  0.0000000000  0.0000000000  0.0000000000  0.0000000000
  0.0000147211 -0.0000040669  1.1800800e-6  0.0000000000  0.0000000000  0.0000000000  0.0000000000  0.0000000000
  0.0000775084 -0.0000214065  6.2169900e-6  0.0000000000  0.0000000000  0.0000000000  0.0000000000  0.0000000000
  0.0003272240 -0.0000904540  0.0000262405  0.0000000000  0.0000000000  0.0000000000  0.0000000000  0.0000000000
  0.0011936500 -0.0003300800  0.0000959040  0.0000000000  0.0000000000  0.0000000000  0.0000000000  0.0000000000
  0.0038839300 -0.0010778200  0.0003126780  0.0000000000  0.0000000000  0.0000000000  0.0000000000  0.0000000000
  0.0115336000 -0.0032187400  0.0009363220  0.0000000000  0.0000000000  0.0000000000  0.0000000000  0.0000000000
  0.0312748000 -0.0088721700  0.0025779000  0.0000000000  0.0000000000  0.0000000000  0.0000000000  0.0000000000
  0.0764387000 -0.0223771000  0.0065412100  0.0000000000  0.0000000000  0.0000000000  0.0000000000  0.0000000000
  0.1627000000 -0.0510577000  0.0149630000  0.0000000000  0.0000000000  0.0000000000  0.0000000000  0.0000000000
  0.2793280000 -0.1002250000  0.0298940000  0.0000000000  0.0000000000  0.0000000000  0.0000000000  0.0000000000
  0.3331450000 -0.1567950000  0.0476946000  0.0000000000  0.0000000000  0.0000000000  0.0000000000  0.0000000000
  0.2098360000 -0.1397480000  0.0449556000  0.0000000000  0.0000000000  0.0000000000  0.0000000000  0.0000000000
  0.0415974000  0.0810059000 -0.0293009000  0.0000000000  0.0000000000  0.0000000000  0.0000000000  0.0000000000
 -0.0004505520  0.4308830000 -0.1689160000  0.0000000000  0.0000000000  0.0000000000  0.0000000000  0.0000000000
  0.0016885500  0.4816880000 -0.3110140000  0.0000000000  0.0000000000  0.0000000000  0.0000000000  0.0000000000
 -0.0005172360  0.1568620000 -0.1364910000  1.0000000000  0.0000000000  0.0000000000  0.0000000000  0.0000000000
  0.0001887730  0.0078881400  0.4231950000  0.0000000000  1.0000000000  0.0000000000  0.0000000000  0.0000000000
 -0.0000997734  0.0003935330  0.6138880000  0.0000000000  0.0000000000  1.0000000000  0.0000000000  0.0000000000
  0.0000209020  0.0002237570  0.2004730000  0.0000000000  0.0000000000  0.0000000000  1.0000000000  0.0000000000
  0.0000000000  0.0000000000  0.0000000000  0.0000000000  0.0000000000  0.0000000000  0.0000000000  1.0000000000
* p-type functions
   13    7
       2200.00000000
        521.40000000
        169.00000000
         64.05000000
         26.72000000
         11.83000000
          5.37800000
          2.48200000
          1.11600000
          0.48480000
          0.20060000
          0.07951000
          0.02940000
  0.0002390490 -0.0000608562  0.0000000000  0.0000000000  0.0000000000  0.0000000000  0.0000000000
  0.0020768600 -0.0005304190  0.0000000000  0.0000000000  0.0000000000  0.0000000000  0.0000000000
  0.0112363000 -0.0028791500  0.0000000000  0.0000000000  0.0000000000  0.0000000000  0.0000000000
  0.0440690000 -0.0114397000  0.0000000000  0.0000000000  0.0000000000  0.0000000000  0.0000000000
  0.1291680000 -0.0342764000  0.0000000000  0.0000000000  0.0000000000  0.0000000000  0.0000000000
  0.2690830000 -0.0735811000  0.0000000000  0.0000000000  0.0000000000  0.0000000000  0.0000000000
  0.3786110000 -0.1077820000  0.0000000000  0.0000000000  0.0000000000  0.0000000000  0.0000000000
  0.2967790000 -0.0879769000  0.0000000000  0.0000000000  0.0000000000  0.0000000000  0.0000000000
  0.0779676000  0.1082610000  1.0000000000  0.0000000000  0.0000000000  0.0000000000  0.0000000000
  0.0020519300  0.4070820000  0.0000000000  1.0000000000  0.0000000000  0.0000000000  0.0000000000
  0.0014360200  0.4689940000  0.0000000000  0.0000000000  1.0000000000  0.0000000000  0.0000000000
 -0.0000596000  0.1848770000  0.0000000000  0.0000000000  0.0000000000  1.0000000000  0.0000000000
  0.0000000000  0.0000000000  0.0000000000  0.0000000000  0.0000000000  0.0000000000  1.0000000000
* d-type functions
    5    5
          0.20500000
          0.51200000
          1.28100000
          3.20300000
          0.07940000
  1.0000000000  0.0000000000  0.0000000000  0.0000000000  0.0000000000
  0.0000000000  1.0000000000  0.0000000000  0.0000000000  0.0000000000
  0.0000000000  0.0000000000  1.0000000000  0.0000000000  0.0000000000
  0.0000000000  0.0000000000  0.0000000000  1.0000000000  0.0000000000
  0.0000000000  0.0000000000  0.0000000000  0.0000000000  1.0000000000
* f-type functions
    4    4
          0.25500000
          0.52900000
          1.09600000
          0.11880000
  1.0000000000  0.0000000000  0.0000000000  0.0000000000
  0.0000000000  1.0000000000  0.0000000000  0.0000000000
  0.0000000000  0.0000000000  1.0000000000  0.0000000000
  0.0000000000  0.0000000000  0.0000000000  1.0000000000
* g-type functions
    3    3
          0.46300000
          1.07100000
          0.22000000
  1.0000000000  0.0000000000  0.0000000000
  0.0000000000  1.0000000000  0.0000000000
  0.0000000000  0.0000000000  1.0000000000
* h-type functions
    2    2
          0.87200000
          0.47200000
  1.0000000000  0.0000000000
  0.0000000000  1.0000000000

/Cl.aug-cc-pV5Z.Woon.21s13p5d4f3g2h.8s7p5d4f3g2h.
D.E. Woon, T.H. Dunning. J. Chem. Phys. 98 (1993) 1358-1371. doi:10.1063/1.464303
CHLORINE (21s,13p,5d,4f,3g,2h) -> [8s,7p,5d,4f,3g,2h]
    17.0   5
* s-type functions
   21    8
    6410000.00000000
     959600.00000000
     218300.00000000
      61810.00000000
      20140.00000000
       7264.00000000
       2832.00000000
       1175.00000000
        512.60000000
        233.00000000
        109.50000000
         52.86000000
         25.84000000
         12.17000000
          6.03000000
          3.01200000
          1.51100000
          0.66040000
          0.29260000
          0.12540000
          0.04790000
  0.0000018135 -5.0830300e-7  1.5380800e-7  0.0000000000  0.0000000000  0.0000000000  0.0000000000  0.0000000000
  0.0000141118 -3.9563300e-6  1.1965400e-6  0.0000000000  0.0000000000  0.0000000000  0.0000000000  0.0000000000
  0.0000742406 -0.0000208095  6.2982800e-6  0.0000000000  0.0000000000  0.0000000000  0.0000000000  0.0000000000
  0.0003141310 -0.0000881175  0.0000266450  0.0000000000  0.0000000000  0.0000000000  0.0000000000  0.0000000000
  0.0011464200 -0.0003217420  0.0000974162  0.0000000000  0.0000000000  0.0000000000  0.0000000000  0.0000000000
  0.0037388800 -0.0010527700  0.0003183600  0.0000000000  0.0000000000  0.0000000000  0.0000000000  0.0000000000
  0.0110946000 -0.0031418300  0.0009523770  0.0000000000  0.0000000000  0.0000000000  0.0000000000  0.0000000000
  0.0301152000 -0.0086636300  0.0026243000  0.0000000000  0.0000000000  0.0000000000  0.0000000000  0.0000000000
  0.0739145000 -0.0219353000  0.0066816000  0.0000000000  0.0000000000  0.0000000000  0.0000000000  0.0000000000
  0.1582580000 -0.0502584000  0.0153595000  0.0000000000  0.0000000000  0.0000000000  0.0000000000  0.0000000000
  0.2747530000 -0.0995414000  0.0309432000  0.0000000000  0.0000000000  0.0000000000  0.0000000000  0.0000000000
  0.3340660000 -0.1576470000  0.0500638000  0.0000000000  0.0000000000  0.0000000000  0.0000000000  0.0000000000
  0.2175890000 -0.1460240000  0.0489782000  0.0000000000  0.0000000000  0.0000000000  0.0000000000  0.0000000000
  0.0457278000  0.0692230000 -0.0260807000  0.0000000000  0.0000000000  0.0000000000  0.0000000000  0.0000000000
 -0.0001347390  0.4304120000 -0.1784260000  0.0000000000  0.0000000000  0.0000000000  0.0000000000  0.0000000000
  0.0016393300  0.4908020000 -0.3323240000  0.0000000000  0.0000000000  0.0000000000  0.0000000000  0.0000000000
 -0.0005222120  0.1583900000 -0.1320080000  1.0000000000  0.0000000000  0.0000000000  0.0000000000  0.0000000000
  0.0001806480  0.0083988500  0.4405560000  0.0000000000  1.0000000000  0.0000000000  0.0000000000  0.0000000000
 -0.0000999312  0.0007684840  0.6118910000  0.0000000000  0.0000000000  1.0000000000  0.0000000000  0.0000000000
  0.0000192175  0.0002271460  0.1931720000  0.0000000000  0.0000000000  0.0000000000  1.0000000000  0.0000000000
  0.0000000000  0.0000000000  0.0000000000  0.0000000000  0.0000000000  0.0000000000  0.0000000000  1.0000000000
* p-type functions
   13    7
       2548.00000000
        603.70000000
        195.60000000
         74.15000000
         30.94000000
         13.69000000
          6.22900000
          2.87800000
          1.28200000
          0.56410000
          0.23480000
          0.09312000
          0.03480000
  0.0002357020 -0.0000635410  0.0000000000  0.0000000000  0.0000000000  0.0000000000  0.0000000000
  0.0020515800 -0.0005532590  0.0000000000  0.0000000000  0.0000000000  0.0000000000  0.0000000000
  0.0111543000 -0.0030279500  0.0000000000  0.0000000000  0.0000000000  0.0000000000  0.0000000000
  0.0439816000 -0.0120650000  0.0000000000  0.0000000000  0.0000000000  0.0000000000  0.0000000000
  0.1299940000 -0.0366348000  0.0000000000  0.0000000000  0.0000000000  0.0000000000  0.0000000000
  0.2729590000 -0.0790764000  0.0000000000  0.0000000000  0.0000000000  0.0000000000  0.0000000000
  0.3836900000 -0.1174220000  0.0000000000  0.0000000000  0.0000000000  0.0000000000  0.0000000000
  0.2918700000 -0.0860943000  0.0000000000  0.0000000000  0.0000000000  0.0000000000  0.0000000000
  0.0704464000  0.1403080000  1.0000000000  0.0000000000  0.0000000000  0.0000000000  0.0000000000
  0.0012876100  0.4223360000  0.0000000000  1.0000000000  0.0000000000  0.0000000000  0.0000000000
  0.0018262300  0.4463630000  0.0000000000  0.0000000000  1.0000000000  0.0000000000  0.0000000000
  0.0000199013  0.1666340000  0.0000000000  0.0000000000  0.0000000000  1.0000000000  0.0000000000
  0.0000000000  0.0000000000  0.0000000000  0.0000000000  0.0000000000  0.0000000000  1.0000000000
* d-type functions
    5    5
          0.25000000
          0.61800000
          1.52900000
          3.78100000
          0.10030000
[...]
       1635.06600000
        494.67270000
        192.84390000
         85.78220000
         41.14997000
         20.67817000
         10.72639000
          5.61245400
          2.92037600
          1.49818400
          0.73599900
          0.31600400
          0.13310000
          0.05480000
  0.0000591000  0.0000000000  0.0000000000  0.0000000000  0.0000000000  0.0000000000
  0.0005840000  0.0000000000  0.0000000000  0.0000000000  0.0000000000  0.0000000000
  0.0035256000  0.0000000000  0.0000000000  0.0000000000  0.0000000000  0.0000000000
  0.0151127000  0.0000000000  0.0000000000  0.0000000000  0.0000000000  0.0000000000
  0.0478446000  0.0000000000  0.0000000000  0.0000000000  0.0000000000  0.0000000000
  0.1174345000  0.0000000000  0.0000000000  0.0000000000  0.0000000000  0.0000000000
  0.2159074000  0.0000000000  0.0000000000  0.0000000000  0.0000000000  0.0000000000
  0.2929216000  0.0000000000  0.0000000000  0.0000000000  0.0000000000  0.0000000000
  0.3000864000  0.0000000000  0.0000000000  0.0000000000  0.0000000000  0.0000000000
  0.2136719000  1.0000000000  0.0000000000  0.0000000000  0.0000000000  0.0000000000
  0.0849833000  0.0000000000  1.0000000000  0.0000000000  0.0000000000  0.0000000000
  0.0118012000  0.0000000000  0.0000000000  1.0000000000  0.0000000000  0.0000000000
  0.0000000000  0.0000000000  0.0000000000  0.0000000000  1.0000000000  0.0000000000
  0.0000000000  0.0000000000  0.0000000000  0.0000000000  0.0000000000  1.0000000000
* f-type functions
    4    4
          0.21000000
          0.42110000
          0.84420000
          0.09920000
  1.0000000000  0.0000000000  0.0000000000  0.0000000000
  0.0000000000  1.0000000000  0.0000000000  0.0000000000
  0.0000000000  0.0000000000  1.0000000000  0.0000000000
  0.0000000000  0.0000000000  0.0000000000  1.0000000000
* g-type functions
    3    3
          0.38500000
          0.86590000
          0.18300000
  1.0000000000  0.0000000000  0.0000000000
  0.0000000000  1.0000000000  0.0000000000
  0.0000000000  0.0000000000  1.0000000000
* h-type functions
    2    2
          0.72350000
          0.40200000
  1.0000000000  0.0000000000
  0.0000000000  1.0000000000

/Br.aug-cc-pV5Z.Wilson.27s18p14d4f3g2h.9s8p6d4f3g2h.
A.K. Wilson, D.E. Woon, K.A. Peterson, T.H. Dunning. J. Chem. Phys. 110 (1999) 7667-7676. doi:10.1063/1.478678
BROMINE (27s,18p,14d,4f,3g,2h) -> [9s,8p,6d,4f,3g,2h]
    35.0   5
* s-type functions
   27    9
  165735200.00000000
   24774380.00000000
    5628202.00000000
    1591900.00000000
     518263.80000000
     186490.90000000
      72332.49000000
      29761.13000000
      12851.71000000
       5780.94300000
       2695.01000000
       1297.66000000
        643.63490000
        327.95190000
        170.92260000
         90.25014000
         46.29247000
         24.84866000
         13.34714000
          6.94825800
          3.62507500
          1.88215300
          0.91082200
          0.46395700
          0.21693300
          0.09840600
          0.03910600
  0.0000001900 -0.0000000600  0.0000000200 -0.0000000070  0.0000000000  0.0000000000  0.0000000000  0.0000000000  0.0000000000
  0.0000014900 -0.0000004700  0.0000001900 -0.0000000570  0.0000000000  0.0000000000  0.0000000000  0.0000000000  0.0000000000
  0.0000078800 -0.0000024700  0.0000009800 -0.0000003010  0.0000000000  0.0000000000  0.0000000000  0.0000000000  0.0000000000
  0.0000333900 -0.0000104800  0.0000041600 -0.0000012760  0.0000000000  0.0000000000  0.0000000000  0.0000000000  0.0000000000
  0.0001223100 -0.0000384000  0.0000152600 -0.0000046780  0.0000000000  0.0000000000  0.0000000000  0.0000000000  0.0000000000
  0.0004032100 -0.0001266000  0.0000503100 -0.0000154160  0.0000000000  0.0000000000  0.0000000000  0.0000000000  0.0000000000
  0.0012256400 -0.0003854500  0.0001532500 -0.0000469750  0.0000000000  0.0000000000  0.0000000000  0.0000000000  0.0000000000
  0.0034823500 -0.0010976100  0.0004363700 -0.0001337210  0.0000000000  0.0000000000  0.0000000000  0.0000000000  0.0000000000
  0.0093085600 -0.0029537900  0.0011758000 -0.0003604850  0.0000000000  0.0000000000  0.0000000000  0.0000000000  0.0000000000
  0.0233883000 -0.0075146000  0.0029946000 -0.0009179760  0.0000000000  0.0000000000  0.0000000000  0.0000000000  0.0000000000
  0.0545530000 -0.0180230000  0.0072119000 -0.0022129000  0.0000000000  0.0000000000  0.0000000000  0.0000000000  0.0000000000
  0.1149479000 -0.0400255000  0.0161151000 -0.0049473000  0.0000000000  0.0000000000  0.0000000000  0.0000000000  0.0000000000
  0.2079225000 -0.0802919000  0.0327943000 -0.0100951000  0.0000000000  0.0000000000  0.0000000000  0.0000000000  0.0000000000
  0.2951596000 -0.1372166000  0.0574309000 -0.0177324000  0.0000000000  0.0000000000  0.0000000000  0.0000000000  0.0000000000
  0.2798766000 -0.1769439000  0.0776187000 -0.0241653000  0.0000000000  0.0000000000  0.0000000000  0.0000000000  0.0000000000
  0.1369752000 -0.0977033000  0.0456464000 -0.0143180000  0.0000000000  0.0000000000  0.0000000000  0.0000000000  0.0000000000
  0.0212154000  0.2067633000 -0.1131171000  0.0362812000  0.0000000000  0.0000000000  0.0000000000  0.0000000000  0.0000000000
 -0.0000254000  0.5148419000 -0.3795596000  0.1286552000  0.0000000000  0.0000000000  0.0000000000  0.0000000000  0.0000000000
  0.0004570000  0.3799206000 -0.3851494000  0.1356888000  0.0000000000  0.0000000000  0.0000000000  0.0000000000  0.0000000000
 -0.0002348000  0.0830128000  0.1236851000 -0.0516764000  0.0000000000  0.0000000000  0.0000000000  0.0000000000  0.0000000000
  0.0000685800  0.0032157000  0.6406138000 -0.3030724000  0.0000000000  0.0000000000  0.0000000000  0.0000000000  0.0000000000
 -0.0000611600  0.0017129000  0.4707436000 -0.4073838000  0.0000000000  0.0000000000  0.0000000000  0.0000000000  0.0000000000
  0.0000290500 -0.0003897000  0.0690732000 -0.0090393000  1.0000000000  0.0000000000  0.0000000000  0.0000000000  0.0000000000
 -0.0000136600  0.0001553000 -0.0013060000  0.5455249000  0.0000000000  1.0000000000  0.0000000000  0.0000000000  0.0000000000
  0.0000057300 -0.0000857500  0.0014148000  0.5582650000  0.0000000000  0.0000000000  1.0000000000  0.0000000000  0.0000000000
 -0.0000012000  0.0000131200 -0.0000524500  0.1378901000  0.0000000000  0.0000000000  0.0000000000  1.0000000000  0.0000000000
  0.0000000000  0.0000000000  0.0000000000  0.0000000000  0.0000000000  0.0000000000  0.0000000000  0.0000000000  1.0000000000
* p-type functions
   18    8
      39391.53000000
       9325.22200000
       3028.99400000
       1159.51400000
        492.68130000
        225.17450000
        108.59330000
         54.33608000
         27.93665000
         14.53963000
          7.42130700
          3.73038900
          1.85412700
          0.84533700
          0.39215200
          0.17276700
          0.07290800
          0.02905200
  0.0000312000 -0.0000125000  0.0000032000  0.0000000000  0.0000000000  0.0000000000  0.0000000000  0.0000000000
  0.0002780000 -0.0001116000  0.0000288000  0.0000000000  0.0000000000  0.0000000000  0.0000000000  0.0000000000
  0.0016138000 -0.0006499000  0.0001684000  0.0000000000  0.0000000000  0.0000000000  0.0000000000  0.0000000000
  0.0072049000 -0.0029159000  0.0007543000  0.0000000000  0.0000000000  0.0000000000  0.0000000000  0.0000000000
  0.0260873000 -0.0107009000  0.0027801000  0.0000000000  0.0000000000  0.0000000000  0.0000000000  0.0000000000
  0.0772971000 -0.0324951000  0.0084462000  0.0000000000  0.0000000000  0.0000000000  0.0000000000  0.0000000000
  0.1804775000 -0.0791123000  0.0207376000  0.0000000000  0.0000000000  0.0000000000  0.0000000000  0.0000000000
  0.3106126000 -0.1435252000  0.0377542000  0.0000000000  0.0000000000  0.0000000000  0.0000000000  0.0000000000
  0.3454297000 -0.1658248000  0.0442062000  0.0000000000  0.0000000000  0.0000000000  0.0000000000  0.0000000000
  0.1948515000 -0.0106591000 -0.0021775000  0.0000000000  0.0000000000  0.0000000000  0.0000000000  0.0000000000
  0.0403860000  0.3050662000 -0.0979530000  0.0000000000  0.0000000000  0.0000000000  0.0000000000  0.0000000000
  0.0023091000  0.4813563000 -0.1692656000  0.0000000000  0.0000000000  0.0000000000  0.0000000000  0.0000000000
  0.0006715000  0.2942769000 -0.1117490000  0.0000000000  0.0000000000  0.0000000000  0.0000000000  0.0000000000
 -0.0000717000  0.0467019000  0.1784422000  1.0000000000  0.0000000000  0.0000000000  0.0000000000  0.0000000000
  0.0000359000 -0.0002585000  0.4499658000  0.0000000000  1.0000000000  0.0000000000  0.0000000000  0.0000000000
 -0.0000279000  0.0014779000  0.4215597000  0.0000000000  0.0000000000  1.0000000000  0.0000000000  0.0000000000
  0.0000031000 -0.0000513000  0.1350380000  0.0000000000  0.0000000000  0.0000000000  1.0000000000  0.0000000000
  0.0000000000  0.0000000000  0.0000000000  0.0000000000  0.0000000000  0.0000000000  0.0000000000  1.0000000000
* d-type functions
   14    6
       1850.63500000
        557.07120000
        216.48690000
         96.13885000
         46.12638000
         23.20116000
         12.05593000
          6.32554500
          3.30492200
          1.70425300
          0.83994000
          0.35695300
          0.15200000
          0.07810000
  0.0000538000  0.0000000000  0.0000000000  0.0000000000  0.0000000000  0.0000000000
  0.0005402000  0.0000000000  0.0000000000  0.0000000000  0.0000000000  0.0000000000
  0.0033012000  0.0000000000  0.0000000000  0.0000000000  0.0000000000  0.0000000000
  0.0143551000  0.0000000000  0.0000000000  0.0000000000  0.0000000000  0.0000000000
  0.0461168000  0.0000000000  0.0000000000  0.0000000000  0.0000000000  0.0000000000
  0.1147873000  0.0000000000  0.0000000000  0.0000000000  0.0000000000  0.0000000000
  0.2145369000  0.0000000000  0.0000000000  0.0000000000  0.0000000000  0.0000000000
  0.2953131000  0.0000000000  0.0000000000  0.0000000000  0.0000000000  0.0000000000
  0.3040938000  0.0000000000  0.0000000000  0.0000000000  0.0000000000  0.0000000000
  0.2121315000  1.0000000000  0.0000000000  0.0000000000  0.0000000000  0.0000000000
  0.0797804000  0.0000000000  1.0000000000  0.0000000000  0.0000000000  0.0000000000
  0.0100736000  0.0000000000  0.0000000000  1.0000000000  0.0000000000  0.0000000000
  0.0000000000  0.0000000000  0.0000000000  0.0000000000  1.0000000000  0.0000000000
  0.0000000000  0.0000000000  0.0000000000  0.0000000000  0.0000000000  1.0000000000
* f-type functions
    4    4
          0.25500000
          0.49550000
          0.96270000
          0.13880000
  1.0000000000  0.0000000000  0.0000000000  0.0000000000
  0.0000000000  1.0000000000  0.0000000000  0.0000000000
  0.0000000000  0.0000000000  1.0000000000  0.0000000000
  0.0000000000  0.0000000000  0.0000000000  1.0000000000
* g-type functions
    3    3
          0.43900000
          0.97680000
          0.21900000
  1.0000000000  0.0000000000  0.0000000000
  0.0000000000  1.0000000000  0.0000000000
  0.0000000000  0.0000000000  1.0000000000
* h-type functions
    2    2
          0.81930000
          0.49100000
  1.0000000000  0.0000000000
  0.0000000000  1.0000000000

/Kr.aug-cc-pV5Z.Wilson.27s18p14d4f3g2h.9s8p6d4f3g2h.
A.K. Wilson, D.E. Woon, K.A. Peterson, T.H. Dunning. J. Chem. Phys. 110 (1999) 7667-7676. doi:10.1063/1.478678
KRYPTON (27s,18p,14d,4f,3g,2h) -> [9s,8p,6d,4f,3g,2h]
    36.0   5
* s-type functions
   27    9
  182822100.00000000
   27356160.00000000
    6221170.00000000
    1760278.00000000
     573193.80000000
     206258.50000000
      80026.67000000
      32939.08000000
      14222.63000000
       6393.07100000
       2976.45400000
       1430.52500000
        707.92620000
        359.84850000
        187.14970000
         98.63452000
         50.54787000
         27.16700000
         14.61510000
          7.65135200
          3.99726300
          2.08585300
          1.01479700
          0.51978800
          0.24510300
          0.11189600
          0.04427700
  0.0000001800 -0.0000005700  0.0000000200 -0.0000000060  0.0000000000  0.0000000000  0.0000000000  0.0000000000  0.0000000000
  0.0000014200 -0.0000004500  0.0000001800 -0.0000000570  0.0000000000  0.0000000000  0.0000000000  0.0000000000  0.0000000000
  0.0000074600 -0.0000023500  0.0000009400 -0.0000003000  0.0000000000  0.0000000000  0.0000000000  0.0000000000  0.0000000000
  0.0000315900 -0.0000099400  0.0000039900 -0.0000012700  0.0000000000  0.0000000000  0.0000000000  0.0000000000  0.0000000000
  0.0001157500 -0.0000364000  0.0000146200 -0.0000046580  0.0000000000  0.0000000000  0.0000000000  0.0000000000  0.0000000000
  0.0003815000 -0.0001201000  0.0000481900 -0.0000153470  0.0000000000  0.0000000000  0.0000000000  0.0000000000  0.0000000000
  0.0011590000 -0.0003654000  0.0001467000 -0.0000467360  0.0000000000  0.0000000000  0.0000000000  0.0000000000  0.0000000000
  0.0032934000 -0.0010407000  0.0004177000 -0.0001330220  0.0000000000  0.0000000000  0.0000000000  0.0000000000  0.0000000000
  0.0088161000 -0.0028038000  0.0011267000 -0.0003590620  0.0000000000  0.0000000000  0.0000000000  0.0000000000  0.0000000000
  0.0222180000 -0.0071509000  0.0028769000 -0.0009165000  0.0000000000  0.0000000000  0.0000000000  0.0000000000  0.0000000000
  0.0520881000 -0.0172204000  0.0069549000 -0.0022184000  0.0000000000  0.0000000000  0.0000000000  0.0000000000  0.0000000000
  0.1106356000 -0.0384800000  0.0156365000 -0.0049883000  0.0000000000  0.0000000000  0.0000000000  0.0000000000  0.0000000000
  0.2025326000 -0.0778628000  0.0320801000 -0.0102661000  0.0000000000  0.0000000000  0.0000000000  0.0000000000  0.0000000000
  0.2926350000 -0.1347423000  0.0568689000 -0.0182445000  0.0000000000  0.0000000000  0.0000000000  0.0000000000  0.0000000000
  0.2851224000 -0.1776148000  0.0784845000 -0.0254110000  0.0000000000  0.0000000000  0.0000000000  0.0000000000  0.0000000000
  0.1455064000 -0.1068413000  0.0503398000 -0.0163931000  0.0000000000  0.0000000000  0.0000000000  0.0000000000  0.0000000000
  0.0239939000  0.1896132000 -0.1042742000  0.0346977000  0.0000000000  0.0000000000  0.0000000000  0.0000000000  0.0000000000
 -0.0000949000  0.5091871000 -0.3743761000  0.1321283000  0.0000000000  0.0000000000  0.0000000000  0.0000000000  0.0000000000
  0.0005578000  0.3939859000 -0.4011131000  0.1470925000  0.0000000000  0.0000000000  0.0000000000  0.0000000000  0.0000000000
 -0.0002870000  0.0919032000  0.0968388000 -0.0418216000  0.0000000000  0.0000000000  0.0000000000  0.0000000000  0.0000000000
  0.0000966000  0.0039195000  0.6428776000 -0.3195240000  0.0000000000  0.0000000000  0.0000000000  0.0000000000  0.0000000000
 -0.0000784000  0.0017496000  0.4860600000 -0.4363286000  0.0000000000  0.0000000000  0.0000000000  0.0000000000  0.0000000000
  0.0000387700 -0.0004258000  0.0733456000  0.0042911000  1.0000000000  0.0000000000  0.0000000000  0.0000000000  0.0000000000
 -0.0000182200  0.0001529000 -0.0010077000  0.5645558000  0.0000000000  1.0000000000  0.0000000000  0.0000000000  0.0000000000
  0.0000076300 -0.0000938100  0.0016087000  0.5502845000  0.0000000000  0.0000000000  1.0000000000  0.0000000000  0.0000000000
 -0.0000015900  0.0000132600 -0.0000439300  0.1297710000  0.0000000000  0.0000000000  0.0000000000  1.0000000000  0.0000000000
  0.0000000000  0.0000000000  0.0000000000  0.0000000000  0.0000000000  0.0000000000  0.0000000000  0.0000000000  1.0000000000
* p-type functions
   18    8
      42993.06000000
      10173.72000000
       3303.10600000
       1263.54000000
        536.36550000
        244.87620000
        117.99120000
         59.02125000
         30.35607000
         15.81998000
          8.10458000
          4.09796400
          2.05606100
          0.95214500
          0.44477400
          0.19749600
          0.08382300
          0.03312900
  0.0000297000 -0.0000121000  0.0000033000  0.0000000000  0.0000000000  0.0000000000  0.0000000000  0.0000000000
  0.0002651000 -0.0001078000  0.0000293000  0.0000000000  0.0000000000  0.0000000000  0.0000000000  0.0000000000
  0.0015416000 -0.0006290000  0.0001713000  0.0000000000  0.0000000000  0.0000000000  0.0000000000  0.0000000000
  0.0069065000 -0.0028323000  0.0007695000  0.0000000000  0.0000000000  0.0000000000  0.0000000000  0.0000000000
  0.0251397000 -0.0104462000  0.0028514000  0.0000000000  0.0000000000  0.0000000000  0.0000000000  0.0000000000
  0.0750124000 -0.0319400000  0.0087204000  0.0000000000  0.0000000000  0.0000000000  0.0000000000  0.0000000000
  0.1767433000 -0.0784599000  0.0216181000  0.0000000000  0.0000000000  0.0000000000  0.0000000000  0.0000000000
  0.3075135000 -0.1439719000  0.0398024000  0.0000000000  0.0000000000  0.0000000000  0.0000000000  0.0000000000
  0.3470644000 -0.1691703000  0.0474775000  0.0000000000  0.0000000000  0.0000000000  0.0000000000  0.0000000000
  0.2002802000 -0.0175966000 -0.0004773000  0.0000000000  0.0000000000  0.0000000000  0.0000000000  0.0000000000
  0.0430508000  0.3002649000 -0.1021891000  0.0000000000  0.0000000000  0.0000000000  0.0000000000  0.0000000000
  0.0024772000  0.4847661000 -0.1823611000  0.0000000000  0.0000000000  0.0000000000  0.0000000000  0.0000000000
  0.0006789000  0.2967248000 -0.1173363000  0.0000000000  0.0000000000  0.0000000000  0.0000000000  0.0000000000
 -0.0000821000  0.0474533000  0.1954244000  1.0000000000  0.0000000000  0.0000000000  0.0000000000  0.0000000000
  0.0000469000 -0.0004728000  0.4590176000  0.0000000000  1.0000000000  0.0000000000  0.0000000000  0.0000000000
 -0.0000221000  0.0009253000  0.4096174000  0.0000000000  0.0000000000  1.0000000000  0.0000000000  0.0000000000
  0.0000058000 -0.0001847000  0.1259715000  0.0000000000  0.0000000000  0.0000000000  1.0000000000  0.0000000000
  0.0000000000  0.0000000000  0.0000000000  0.0000000000  0.0000000000  0.0000000000  0.0000000000  1.0000000000
* d-type functions
   14    6
       2067.43600000
        625.69370000
        243.94680000
        108.42370000
         52.00522000
         26.11540000
         13.54675000
          7.10581000
          3.72155400
          1.92912000
          0.95582600
          0.40519700
          0.17410000
          0.10140000
  0.0000496000  0.0000000000  0.0000000000  0.0000000000  0.0000000000  0.0000000000
  0.0004944000  0.0000000000  0.0000000000  0.0000000000  0.0000000000  0.0000000000
  0.0030265000  0.0000000000  0.0000000000  0.0000000000  0.0000000000  0.0000000000
  0.0133461000  0.0000000000  0.0000000000  0.0000000000  0.0000000000  0.0000000000
  0.0437869000  0.0000000000  0.0000000000  0.0000000000  0.0000000000  0.0000000000
  0.1114388000  0.0000000000  0.0000000000  0.0000000000  0.0000000000  0.0000000000
  0.2130341000  0.0000000000  0.0000000000  0.0000000000  0.0000000000  0.0000000000
  0.2979241000  0.0000000000  0.0000000000  0.0000000000  0.0000000000  0.0000000000
  0.3079660000  0.0000000000  0.0000000000  0.0000000000  0.0000000000  0.0000000000
  0.2110775000  1.0000000000  0.0000000000  0.0000000000  0.0000000000  0.0000000000
  0.0763261000  0.0000000000  1.0000000000  0.0000000000  0.0000000000  0.0000000000
  0.0091733000  0.0000000000  0.0000000000  1.0000000000  0.0000000000  0.0000000000
  0.0000000000  0.0000000000  0.0000000000  0.0000000000  1.0000000000  0.0000000000
  0.0000000000  0.0000000000  0.0000000000  0.0000000000  0.0000000000  1.0000000000
* f-type functions
    4    4
          0.31500000
          0.58700000
          1.09400000
          0.17840000
  1.0000000000  0.0000000000  0.0000000000  0.0000000000
  0.0000000000  1.0000000000  0.0000000000  0.0000000000
  0.0000000000  0.0000000000  1.0000000000  0.0000000000
  0.0000000000  0.0000000000  0.0000000000  1.0000000000
* g-type functions
    3    3
          0.50100000
          1.10400000
          0.25500000
  1.0000000000  0.0000000000  0.0000000000
  0.0000000000  1.0000000000  0.0000000000
  0.0000000000  0.0000000000  1.0000000000
* h-type functions
    2    2
          0.93030000
          0.58000000
  1.0000000000  0.0000000000
  0.0000000000  1.0000000000
