************************************************************************
* This file is part of OpenMolcas.                                     *
*                                                                      *
* OpenMolcas is free software; you can redistribute it and/or modify   *
* it under the terms of the GNU Lesser General Public License, v. 2.1. *
* OpenMolcas is distributed in the hope that it will be useful, but it *
* is provided "as is" and without any express or implied warranties.   *
* For more details see the full text of the license in the file        *
* LICENSE or in <http://www.gnu.org/licenses/>.                        *
************************************************************************

#Hamiltonian NRH
#Nucleus UNK
#Contraction SEG
#AllElectron AE_

************************************************************************
* This file has been generated from Basis Set Exchange data:           *
*   https://www.basissetexchange.org                                   *
* Version: 0  (Data from the Original Basis Set Exchange)              *
************************************************************************

/H.aug-pc-3.Jensen.10s5p3d2f.6s5p3d2f.
F. Jensen. J. Chem. Phys. 117 (2002) 9234-9240. doi:10.1063/1.1515484
HYDROGEN (10s,5p,3d,2f) -> [6s,5p,3d,2f]
     1.0   3
* s-type functions
   10    6
        774.69000000
        116.16000000
         26.44900000
          7.50150000
          2.45680000
          0.88774000
          0.34085000
          0.13477000
          0.05226300
          0.01880000
   0.00131630   0.00000000   0.00000000   0.00000000   0.00000000   0.00000000
   0.01022600   0.00000000   0.00000000   0.00000000   0.00000000   0.00000000
   0.05362900   0.00000000   0.00000000   0.00000000   0.00000000   0.00000000
   0.22285000   0.00000000   0.00000000   0.00000000   0.00000000   0.00000000
   0.75374000   0.00000000   0.00000000   0.00000000   0.00000000   0.00000000
   0.00000000   1.00000000   0.00000000   0.00000000   0.00000000   0.00000000
   0.00000000   0.00000000   1.00000000   0.00000000   0.00000000   0.00000000
   0.00000000   0.00000000   0.00000000   1.00000000   0.00000000   0.00000000
   0.00000000   0.00000000   0.00000000   0.00000000   1.00000000   0.00000000
   0.00000000   0.00000000   0.00000000   0.00000000   0.00000000   1.00000000
* p-type functions
    5    5
          6.50000000
          1.55000000
          0.55000000
          0.20000000
          0.05639900
   1.00000000   0.00000000   0.00000000   0.00000000   0.00000000
   0.00000000   1.00000000   0.00000000   0.00000000   0.00000000
   0.00000000   0.00000000   1.00000000   0.00000000   0.00000000
   0.00000000   0.00000000   0.00000000   1.00000000   0.00000000
   0.00000000   0.00000000   0.00000000   0.00000000   1.00000000
* d-type functions
    3    3
          1.95000000
          0.65000000
          0.07519900
   1.00000000   0.00000000   0.00000000
   0.00000000   1.00000000   0.00000000
   0.00000000   0.00000000   1.00000000
* f-type functions
    2    2
          2.20000000
          0.09399900
   1.00000000   0.00000000
   0.00000000   1.00000000

/He.aug-pc-3.Jensen.10s5p3d2f.6s5p3d2f.
F. Jensen. J. Phys. Chem. A 111 (2007) 11198-11204. doi:10.1021/jp068677h
HELIUM (10s,5p,3d,2f) -> [6s,5p,3d,2f]
     2.0   3
* s-type functions
   10    6
       2167.40000000
        324.99000000
         73.99400000
         20.97500000
          6.84520000
          2.43940000
          0.90251000
          0.33313000
          0.12413000
          0.04304000
   0.00084153   0.00000000   0.00000000   0.00000000   0.00000000   0.00000000
   0.00652740   0.00000000   0.00000000   0.00000000   0.00000000   0.00000000
   0.03399500   0.00000000   0.00000000   0.00000000   0.00000000   0.00000000
   0.13811000   0.00000000   0.00000000   0.00000000   0.00000000   0.00000000
   0.44195000   0.00000000   0.00000000   0.00000000   0.00000000   0.00000000
   0.00000000   1.00000000   0.00000000   0.00000000   0.00000000   0.00000000
   0.00000000   0.00000000   1.00000000   0.00000000   0.00000000   0.00000000
   0.00000000   0.00000000   0.00000000   1.00000000   0.00000000   0.00000000
   0.00000000   0.00000000   0.00000000   0.00000000   1.00000000   0.00000000
   0.00000000   0.00000000   0.00000000   0.00000000   0.00000000   1.00000000
* p-type functions
    5    5
         10.70000000
          2.55000000
          0.90000000
          0.33000000
          0.12910000
   1.00000000   0.00000000   0.00000000   0.00000000   0.00000000
   0.00000000   1.00000000   0.00000000   0.00000000   0.00000000
   0.00000000   0.00000000   1.00000000   0.00000000   0.00000000
   0.00000000   0.00000000   0.00000000   1.00000000   0.00000000
   0.00000000   0.00000000   0.00000000   0.00000000   1.00000000
* d-type functions
    3    3
          3.20000000
          1.07000000
          0.17220000
   1.00000000   0.00000000   0.00000000
   0.00000000   1.00000000   0.00000000
   0.00000000   0.00000000   1.00000000
* f-type functions
    2    2
          3.20000000
          0.21520000
   1.00000000   0.00000000
   0.00000000   1.00000000

/Li.aug-pc-3.Jensen.15s7p3d2f.7s4p3d2f.
F. Jensen. J. Phys. Chem. A 111 (2007) 11198-11204. doi:10.1021/jp068677h
LITHIUM (15s,7p,3d,2f) -> [7s,4p,3d,2f]
     3.0   3
* s-type functions
   15    7
      13018.00000000
       1950.10000000
        443.84000000
        125.76000000
         41.09400000
         14.88200000
          5.80750000
          2.38910000
          1.01840000
          0.44404000
          0.19405000
          0.08403900
          0.03792100
          0.01664000
          0.00671300
   5.14480e-5   0.00000000   0.00000000   0.00000000   0.00000000   0.00000000   0.00000000
   0.00039716   1.53040e-6   0.00000000   0.00000000   0.00000000   0.00000000   0.00000000
   0.00210140  -3.10360e-6   0.00000000   0.00000000   0.00000000   0.00000000   0.00000000
   0.00864300   5.70260e-5   0.00000000   0.00000000   0.00000000   0.00000000   0.00000000
   0.03057700  -3.84710e-5   0.00000000   0.00000000   0.00000000   0.00000000   0.00000000
   0.08539700   0.00143160   0.00000000   0.00000000   0.00000000   0.00000000   0.00000000
   0.19415000   0.00164970   0.00000000   0.00000000   0.00000000   0.00000000   0.00000000
   0.28592000   0.02368500   0.00000000   0.00000000   0.00000000   0.00000000   0.00000000
   0.30530000   0.02024700   0.00000000   0.00000000   0.00000000   0.00000000   0.00000000
   0.00000000   0.10064000   0.00000000   0.00000000   0.00000000   0.00000000   0.00000000
   0.00000000   0.00000000   1.00000000   0.00000000   0.00000000   0.00000000   0.00000000
   0.00000000   0.00000000   0.00000000   1.00000000   0.00000000   0.00000000   0.00000000
   0.00000000   0.00000000   0.00000000   0.00000000   1.00000000   0.00000000   0.00000000
   0.00000000   0.00000000   0.00000000   0.00000000   0.00000000   1.00000000   0.00000000
   0.00000000   0.00000000   0.00000000   0.00000000   0.00000000   0.00000000   1.00000000
* p-type functions
    7    4
         15.40000000
          3.59000000
          1.09000000
          0.35000000
          0.13000000
          0.05000000
          0.02014000
   0.00102953   0.00000000   0.00000000   0.00000000
   0.00833218   0.00000000   0.00000000   0.00000000
   0.02929890   0.00000000   0.00000000   0.00000000
   0.11954800   0.00000000   0.00000000   0.00000000
   0.00000000   1.00000000   0.00000000   0.00000000
   0.00000000   0.00000000   1.00000000   0.00000000
   0.00000000   0.00000000   0.00000000   1.00000000
* d-type functions
    3    3
          0.48000000
          0.15000000
          0.02685000
   1.00000000   0.00000000   0.00000000
   0.00000000   1.00000000   0.00000000
   0.00000000   0.00000000   1.00000000
* f-type functions
    2    2
          0.35000000
          0.03357000
   1.00000000   0.00000000
   0.00000000   1.00000000

/Be.aug-pc-3.Jensen.15s7p3d2f.7s4p3d2f.
F. Jensen. J. Phys. Chem. A 111 (2007) 11198-11204. doi:10.1021/jp068677h
BERYLLIUM (15s,7p,3d,2f) -> [7s,4p,3d,2f]
     4.0   3
* s-type functions
   15    7
      26673.00000000
       3996.30000000
        909.67000000
        257.77000000
         84.23400000
         30.54500000
         12.02000000
          5.04950000
          2.17190000
          0.93410000
          0.38918000
          0.17402000
          0.07602800
          0.03226500
          0.01262000
   2.19750e-5   0.00000000   0.00000000   0.00000000   0.00000000   0.00000000   0.00000000
   0.00016954   4.93050e-6   0.00000000   0.00000000   0.00000000   0.00000000   0.00000000
   0.00089757  -9.13350e-6   0.00000000   0.00000000   0.00000000   0.00000000   0.00000000
   0.00369380   0.00019440   0.00000000   0.00000000   0.00000000   0.00000000   0.00000000
   0.01314100   9.56220e-6   0.00000000   0.00000000   0.00000000   0.00000000   0.00000000
   0.03717900   0.00570280   0.00000000   0.00000000   0.00000000   0.00000000   0.00000000
   0.08599900   0.01234400   0.00000000   0.00000000   0.00000000   0.00000000   0.00000000
   0.13048000   0.10403000   0.00000000   0.00000000   0.00000000   0.00000000   0.00000000
   0.13871000   0.18882000   0.00000000   0.00000000   0.00000000   0.00000000   0.00000000
   0.00000000   0.42111000   0.00000000   0.00000000   0.00000000   0.00000000   0.00000000
   0.00000000   0.00000000   1.00000000   0.00000000   0.00000000   0.00000000   0.00000000
   0.00000000   0.00000000   0.00000000   1.00000000   0.00000000   0.00000000   0.00000000
   0.00000000   0.00000000   0.00000000   0.00000000   1.00000000   0.00000000   0.00000000
   0.00000000   0.00000000   0.00000000   0.00000000   0.00000000   1.00000000   0.00000000
   0.00000000   0.00000000   0.00000000   0.00000000   0.00000000   0.00000000   1.00000000
* p-type functions
    7    4
         27.80000000
          6.46000000
          1.96000000
          0.63000000
          0.24000000
          0.09000000
          0.03780000
   0.00146992   0.00000000   0.00000000   0.00000000
   0.01290300   0.00000000   0.00000000   0.00000000
   0.04633670   0.00000000   0.00000000   0.00000000
   0.18363000   0.00000000   0.00000000   0.00000000
   0.00000000   1.00000000   0.00000000   0.00000000
   0.00000000   0.00000000   1.00000000   0.00000000
   0.00000000   0.00000000   0.00000000   1.00000000
* d-type functions
    3    3
          0.80000000
          0.25000000
          0.05040000
   1.00000000   0.00000000   0.00000000
   0.00000000   1.00000000   0.00000000
   0.00000000   0.00000000   1.00000000
* f-type functions
    2    2
          0.55000000
          0.06300000
   1.00000000   0.00000000
   0.00000000   1.00000000

/B.aug-pc-3.Jensen.15s10p5d3f2g.7s6p5d3f2g.
F. Jensen. J. Phys. Chem. A 111 (2007) 11198-11204. doi:10.1021/jp068677h
BORON (15s,10p,5d,3f,2g) -> [7s,6p,5d,3f,2g]
     5.0   4
* s-type functions
   15    7
      57415.00000000
       8601.50000000
       1957.80000000
        554.61000000
        181.05000000
         65.49100000
         25.59900000
         10.53200000
          4.44650000
          1.88320000
          0.69831000
          0.34310000
          0.14276000
          0.05815700
          0.02191000
   2.98380e-5   0.00000000   0.00000000   0.00000000   0.00000000   0.00000000   0.00000000
   0.00023044   4.27510e-6   0.00000000   0.00000000   0.00000000   0.00000000   0.00000000
   0.00121950  -7.07370e-6   0.00000000   0.00000000   0.00000000   0.00000000   0.00000000
   0.00504630   0.00017669   0.00000000   0.00000000   0.00000000   0.00000000   0.00000000
   0.01812300   0.00013538   0.00000000   0.00000000   0.00000000   0.00000000   0.00000000
   0.05331800   0.00601230   0.00000000   0.00000000   0.00000000   0.00000000   0.00000000
   0.13277000   0.01984700   0.00000000   0.00000000   0.00000000   0.00000000   0.00000000
   0.23069000   0.14467000   0.00000000   0.00000000   0.00000000   0.00000000   0.00000000
   0.25545000   0.39360000   0.00000000   0.00000000   0.00000000   0.00000000   0.00000000
   0.00000000   0.80698000   0.00000000   0.00000000   0.00000000   0.00000000   0.00000000
   0.00000000   0.00000000   1.00000000   0.00000000   0.00000000   0.00000000   0.00000000
   0.00000000   0.00000000   0.00000000   1.00000000   0.00000000   0.00000000   0.00000000
   0.00000000   0.00000000   0.00000000   0.00000000   1.00000000   0.00000000   0.00000000
   0.00000000   0.00000000   0.00000000   0.00000000   0.00000000   1.00000000   0.00000000
   0.00000000   0.00000000   0.00000000   0.00000000   0.00000000   0.00000000   1.00000000
* p-type functions
   10    6
         90.11100000
         21.16500000
          6.56180000
          2.56460000
          1.05100000
          0.45193000
          0.19468000
          0.08321200
          0.03329700
          0.01234000
   0.00055817   0.00000000   0.00000000   0.00000000   0.00000000   0.00000000
   0.00455240   0.00000000   0.00000000   0.00000000   0.00000000   0.00000000
   0.02231300   0.00000000   0.00000000   0.00000000   0.00000000   0.00000000
   0.05947100   0.00000000   0.00000000   0.00000000   0.00000000   0.00000000
   0.16256000   0.00000000   0.00000000   0.00000000   0.00000000   0.00000000
   0.00000000   1.00000000   0.00000000   0.00000000   0.00000000   0.00000000
   0.00000000   0.00000000   1.00000000   0.00000000   0.00000000   0.00000000
   0.00000000   0.00000000   0.00000000   1.00000000   0.00000000   0.00000000
   0.00000000   0.00000000   0.00000000   0.00000000   1.00000000   0.00000000
   0.00000000   0.00000000   0.00000000   0.00000000   0.00000000   1.00000000
* d-type functions
    5    5
          4.00000000
          1.05000000
          0.40000000
          0.15000000
          0.03701000
   1.00000000   0.00000000   0.00000000   0.00000000   0.00000000
   0.00000000   1.00000000   0.00000000   0.00000000   0.00000000
   0.00000000   0.00000000   1.00000000   0.00000000   0.00000000
   0.00000000   0.00000000   0.00000000   1.00000000   0.00000000
   0.00000000   0.00000000   0.00000000   0.00000000   1.00000000
* f-type functions
    3    3
          1.20000000
          0.52000000
          0.04935000
   1.00000000   0.00000000   0.00000000
   0.00000000   1.00000000   0.00000000
   0.00000000   0.00000000   1.00000000
* g-type functions
    2    2
          1.30000000
          0.06168000
   1.00000000   0.00000000
   0.00000000   1.00000000

/C.aug-pc-3.Jensen.15s10p5d3f2g.7s6p5d3f2g.
F. Jensen. J. Chem. Phys. 117 (2002) 9234-9240. doi:10.1063/1.1515484
CARBON (15s,10p,5d,3f,2g) -> [7s,6p,5d,3f,2g]
     6.0   4
* s-type functions
   15    7
      87141.00000000
      13052.00000000
       2970.60000000
        841.46000000
        274.59000000
         99.21500000
         38.69400000
         15.91100000
          6.76680000
          2.89840000
          1.12460000
          0.51446000
          0.21176000
          0.08501700
          0.03160500
   2.81830e-5   0.00000000   0.00000000   0.00000000   0.00000000   0.00000000   0.00000000
   0.00021819   2.59300e-6   0.00000000   0.00000000   0.00000000   0.00000000   0.00000000
   0.00115110  -3.09070e-6   0.00000000   0.00000000   0.00000000   0.00000000   0.00000000
   0.00478590   0.00012247   0.00000000   0.00000000   0.00000000   0.00000000   0.00000000
   0.01713400   0.00025494   0.00000000   0.00000000   0.00000000   0.00000000   0.00000000
   0.05112000   0.00512540   0.00000000   0.00000000   0.00000000   0.00000000   0.00000000
   0.12805000   0.02195500   0.00000000   0.00000000   0.00000000   0.00000000   0.00000000
   0.22773000   0.14112000   0.00000000   0.00000000   0.00000000   0.00000000   0.00000000
   0.24758000   0.41303000   0.00000000   0.00000000   0.00000000   0.00000000   0.00000000
   0.00000000   0.82714000   0.00000000   0.00000000   0.00000000   0.00000000   0.00000000
   0.00000000   0.00000000   1.00000000   0.00000000   0.00000000   0.00000000   0.00000000
   0.00000000   0.00000000   0.00000000   1.00000000   0.00000000   0.00000000   0.00000000
   0.00000000   0.00000000   0.00000000   0.00000000   1.00000000   0.00000000   0.00000000
   0.00000000   0.00000000   0.00000000   0.00000000   0.00000000   1.00000000   0.00000000
   0.00000000   0.00000000   0.00000000   0.00000000   0.00000000   0.00000000   1.00000000
* p-type functions
   10    6
        148.24000000
         34.91200000
         10.89400000
          4.19340000
          1.71340000
          0.73566000
          0.31637000
          0.13242000
          0.05190100
          0.01887300
   0.00050756   0.00000000   0.00000000   0.00000000   0.00000000   0.00000000
   0.00421260   0.00000000   0.00000000   0.00000000   0.00000000   0.00000000
   0.02133500   0.00000000   0.00000000   0.00000000   0.00000000   0.00000000
   0.06232900   0.00000000   0.00000000   0.00000000   0.00000000   0.00000000
   0.16642000   0.00000000   0.00000000   0.00000000   0.00000000   0.00000000
   0.00000000   1.00000000   0.00000000   0.00000000   0.00000000   0.00000000
   0.00000000   0.00000000   1.00000000   0.00000000   0.00000000   0.00000000
   0.00000000   0.00000000   0.00000000   1.00000000   0.00000000   0.00000000
   0.00000000   0.00000000   0.00000000   0.00000000   1.00000000   0.00000000
   0.00000000   0.00000000   0.00000000   0.00000000   0.00000000   1.00000000
* d-type functions
    5    5
          5.20000000
          1.35000000
          0.52000000
          0.20000000
          0.05661900
   1.00000000   0.00000000   0.00000000   0.00000000   0.00000000
   0.00000000   1.00000000   0.00000000   0.00000000   0.00000000
   0.00000000   0.00000000   1.00000000   0.00000000   0.00000000
   0.00000000   0.00000000   0.00000000   1.00000000   0.00000000
   0.00000000   0.00000000   0.00000000   0.00000000   1.00000000
* f-type functions
    3    3
          1.50000000
          0.65000000
          0.07549200
   1.00000000   0.00000000   0.00000000
   0.00000000   1.00000000   0.00000000
   0.00000000   0.00000000   1.00000000
* g-type functions
    2    2
          1.40000000
          0.09436500
   1.00000000   0.00000000
   0.00000000   1.00000000

/N.aug-pc-3.Jensen.15s10p5d3f2g.7s6p5d3f2g.
F. Jensen. J. Chem. Phys. 117 (2002) 9234-9240. doi:10.1063/1.1515484
NITROGEN (15s,10p,5d,3f,2g) -> [7s,6p,5d,3f,2g]
     7.0   4
* s-type functions
   15    7
     124550.00000000
       4245.10000000
      18656.00000000
       1202.10000000
        392.14000000
        141.58000000
         55.13600000
         22.64300000
          9.65660000
          4.16850000
          1.66780000
          0.74574000
          0.30516000
          0.12089000
          0.04444400
   2.66720e-5   0.00000000   0.00000000   0.00000000   0.00000000   0.00000000   0.00000000
   0.00108930   0.00000000   0.00000000   0.00000000   0.00000000   0.00000000   0.00000000
   0.00020684   1.40880e-6   0.00000000   0.00000000   0.00000000   0.00000000   0.00000000
   0.00454630   8.14390e-5   0.00000000   0.00000000   0.00000000   0.00000000   0.00000000
   0.01623700   0.00032439   0.00000000   0.00000000   0.00000000   0.00000000   0.00000000
   0.04895700   0.00436210   0.00000000   0.00000000   0.00000000   0.00000000   0.00000000
   0.12317000   0.02283800   0.00000000   0.00000000   0.00000000   0.00000000   0.00000000
   0.22425000   0.13462000   0.00000000   0.00000000   0.00000000   0.00000000   0.00000000
   0.23876000   0.42501000   0.00000000   0.00000000   0.00000000   0.00000000   0.00000000
   0.00000000   0.82517000   0.00000000   0.00000000   0.00000000   0.00000000   0.00000000
   0.00000000   0.00000000   1.00000000   0.00000000   0.00000000   0.00000000   0.00000000
   0.00000000   0.00000000   0.00000000   1.00000000   0.00000000   0.00000000   0.00000000
   0.00000000   0.00000000   0.00000000   0.00000000   1.00000000   0.00000000   0.00000000
   0.00000000   0.00000000   0.00000000   0.00000000   0.00000000   1.00000000   0.00000000
   0.00000000   0.00000000   0.00000000   0.00000000   0.00000000   0.00000000   1.00000000
* p-type functions
   10    6
        218.29000000
         51.48800000
         16.13000000
          6.13070000
          2.50520000
          1.07300000
          0.45838000
          0.18948000
          0.07335900
          0.02638800
   0.00048281   0.00000000   0.00000000   0.00000000   0.00000000   0.00000000
   0.00404200   0.00000000   0.00000000   0.00000000   0.00000000   0.00000000
   0.02094600   0.00000000   0.00000000   0.00000000   0.00000000   0.00000000
   0.06475700   0.00000000   0.00000000   0.00000000   0.00000000   0.00000000
   0.17042000   0.00000000   0.00000000   0.00000000   0.00000000   0.00000000
   0.00000000   1.00000000   0.00000000   0.00000000   0.00000000   0.00000000
   0.00000000   0.00000000   1.00000000   0.00000000   0.00000000   0.00000000
   0.00000000   0.00000000   0.00000000   1.00000000   0.00000000   0.00000000
   0.00000000   0.00000000   0.00000000   0.00000000   1.00000000   0.00000000
   0.00000000   0.00000000   0.00000000   0.00000000   0.00000000   1.00000000
* d-type functions
    5    5
          6.00000000
          1.65000000
          0.65000000
          0.25000000
          0.07916400
   1.00000000   0.00000000   0.00000000   0.00000000   0.00000000
   0.00000000   1.00000000   0.00000000   0.00000000   0.00000000
   0.00000000   0.00000000   1.00000000   0.00000000   0.00000000
   0.00000000   0.00000000   0.00000000   1.00000000   0.00000000
   0.00000000   0.00000000   0.00000000   0.00000000   1.00000000
* f-type functions
    3    3
          1.80000000
          0.77000000
          0.10555000
   1.00000000   0.00000000   0.00000000
   0.00000000   1.00000000   0.00000000
   0.00000000   0.00000000   1.00000000
* g-type functions
    2    2
          1.50000000
          0.13194000
   1.00000000   0.00000000
   0.00000000   1.00000000

/O.aug-pc-3.Jensen.15s10p5d3f2g.7s6p5d3f2g.
F. Jensen. J. Chem. Phys. 117 (2002) 9234-9240. doi:10.1063/1.1515484
OXYGEN (15s,10p,5d,3f,2g) -> [7s,6p,5d,3f,2g]
     8.0   4
* s-type functions
   15    7
     164030.00000000
       5591.00000000
      24567.00000000
       1583.60000000
        516.67000000
        186.56000000
         72.69600000
         29.99200000
         12.89900000
          5.61350000
          2.29860000
          0.99980000
          0.40746000
          0.15922000
          0.05769000
   2.65210e-5   0.00000000   0.00000000   0.00000000   0.00000000   0.00000000   0.00000000
   0.00108270   0.00000000   0.00000000   0.00000000   0.00000000   0.00000000   0.00000000
   0.00020571   1.33220e-6   0.00000000   0.00000000   0.00000000   0.00000000   0.00000000
   0.00451900   8.02520e-5   0.00000000   0.00000000   0.00000000   0.00000000   0.00000000
   0.01613500   0.00034512   0.00000000   0.00000000   0.00000000   0.00000000   0.00000000
   0.04871600   0.00444840   0.00000000   0.00000000   0.00000000   0.00000000   0.00000000
   0.12268000   0.02360100   0.00000000   0.00000000   0.00000000   0.00000000   0.00000000
   0.22189000   0.13861000   0.00000000   0.00000000   0.00000000   0.00000000   0.00000000
   0.23904000   0.42872000   0.00000000   0.00000000   0.00000000   0.00000000   0.00000000
   0.00000000   0.84873000   0.00000000   0.00000000   0.00000000   0.00000000   0.00000000
   0.00000000   0.00000000   1.00000000   0.00000000   0.00000000   0.00000000   0.00000000
   0.00000000   0.00000000   0.00000000   1.00000000   0.00000000   0.00000000   0.00000000
   0.00000000   0.00000000   0.00000000   0.00000000   1.00000000   0.00000000   0.00000000
   0.00000000   0.00000000   0.00000000   0.00000000   0.00000000   1.00000000   0.00000000
   0.00000000   0.00000000   0.00000000   0.00000000   0.00000000   0.00000000   1.00000000
* p-type functions
   10    6
        272.02000000
         64.24300000
         20.24900000
          7.64380000
          3.12320000
          1.32510000
          0.55551000
          0.22229000
          0.08401000
          0.02947700
   0.00054941   0.00000000   0.00000000   0.00000000   0.00000000   0.00000000
   0.00458340   0.00000000   0.00000000   0.00000000   0.00000000   0.00000000
   0.02357300   0.00000000   0.00000000   0.00000000   0.00000000   0.00000000
   0.07433800   0.00000000   0.00000000   0.00000000   0.00000000   0.00000000
   0.18755000   0.00000000   0.00000000   0.00000000   0.00000000   0.00000000
   0.00000000   1.00000000   0.00000000   0.00000000   0.00000000   0.00000000
   0.00000000   0.00000000   1.00000000   0.00000000   0.00000000   0.00000000
   0.00000000   0.00000000   0.00000000   1.00000000   0.00000000   0.00000000
   0.00000000   0.00000000   0.00000000   0.00000000   1.00000000   0.00000000
   0.00000000   0.00000000   0.00000000   0.00000000   0.00000000   1.00000000
* d-type functions
    5    5
          7.00000000
          2.00000000
          0.80000000
          0.30000000
          0.08843100
   1.00000000   0.00000000   0.00000000   0.00000000   0.00000000
   0.00000000   1.00000000   0.00000000   0.00000000   0.00000000
   0.00000000   0.00000000   1.00000000   0.00000000   0.00000000
   0.00000000   0.00000000   0.00000000   1.00000000   0.00000000
   0.00000000   0.00000000   0.00000000   0.00000000   1.00000000
* f-type functions
    3    3
          2.10000000
          0.90000000
          0.11791000
   1.00000000   0.00000000   0.00000000
   0.00000000   1.00000000   0.00000000
   0.00000000   0.00000000   1.00000000
* g-type functions
    2    2
          1.60000000
          0.14739000
   1.00000000   0.00000000
   0.00000000   1.00000000

/F.aug-pc-3.Jensen.15s10p5d3f2g.7s6p5d3f2g.
F. Jensen. J. Chem. Phys. 117 (2002) 9234-9240. doi:10.1063/1.1515484
FLUORINE (15s,10p,5d,3f,2g) -> [7s,6p,5d,3f,2g]
     9.0   4
* s-type functions
   15    7
     215660.00000000
       7350.40000000
      32299.00000000
       2081.80000000
        679.09000000
        245.10000000
         95.46200000
         39.42200000
         17.01800000
          7.45250000
          3.13290000
          1.33950000
          0.54218000
          0.20904000
          0.07492400
   2.53780e-5   0.00000000   0.00000000   0.00000000   0.00000000   0.00000000   0.00000000
   0.00103600   0.00000000   0.00000000   0.00000000   0.00000000   0.00000000   0.00000000
   0.00019693   1.01920e-6   0.00000000   0.00000000   0.00000000   0.00000000   0.00000000
   0.00432940   6.80960e-5   0.00000000   0.00000000   0.00000000   0.00000000   0.00000000
   0.01546200   0.00034620   0.00000000   0.00000000   0.00000000   0.00000000   0.00000000
   0.04690300   0.00413970   0.00000000   0.00000000   0.00000000   0.00000000   0.00000000
   0.11881000   0.02307300   0.00000000   0.00000000   0.00000000   0.00000000   0.00000000
   0.21711000   0.13395000   0.00000000   0.00000000   0.00000000   0.00000000   0.00000000
   0.23699000   0.42246000   0.00000000   0.00000000   0.00000000   0.00000000   0.00000000
   0.00000000   0.85999000   0.00000000   0.00000000   0.00000000   0.00000000   0.00000000
   0.00000000   0.00000000   1.00000000   0.00000000   0.00000000   0.00000000   0.00000000
   0.00000000   0.00000000   0.00000000   1.00000000   0.00000000   0.00000000   0.00000000
   0.00000000   0.00000000   0.00000000   0.00000000   1.00000000   0.00000000   0.00000000
   0.00000000   0.00000000   0.00000000   0.00000000   0.00000000   1.00000000   0.00000000
   0.00000000   0.00000000   0.00000000   0.00000000   0.00000000   0.00000000   1.00000000
* p-type functions
   10    6
        351.22000000
         82.97800000
         26.26700000
          9.93070000
          4.06700000
          1.72460000
          0.71976000
          0.28624000
          0.10789000
          0.03785600
   0.00055263   0.00000000   0.00000000   0.00000000   0.00000000   0.00000000
   0.00462850   0.00000000   0.00000000   0.00000000   0.00000000   0.00000000
   0.02380200   0.00000000   0.00000000   0.00000000   0.00000000   0.00000000
   0.07626200   0.00000000   0.00000000   0.00000000   0.00000000   0.00000000
   0.18964000   0.00000000   0.00000000   0.00000000   0.00000000   0.00000000
   0.00000000   1.00000000   0.00000000   0.00000000   0.00000000   0.00000000
   0.00000000   0.00000000   1.00000000   0.00000000   0.00000000   0.00000000
   0.00000000   0.00000000   0.00000000   1.00000000   0.00000000   0.00000000
   0.00000000   0.00000000   0.00000000   0.00000000   1.00000000   0.00000000
   0.00000000   0.00000000   0.00000000   0.00000000   0.00000000   1.00000000
* d-type functions
    5    5
          8.40000000
          2.60000000
          1.00000000
          0.35000000
          0.11357000
   1.00000000   0.00000000   0.00000000   0.00000000   0.00000000
   0.00000000   1.00000000   0.00000000   0.00000000   0.00000000
   0.00000000   0.00000000   1.00000000   0.00000000   0.00000000
   0.00000000   0.00000000   0.00000000   1.00000000   0.00000000
   0.00000000   0.00000000   0.00000000   0.00000000   1.00000000
* f-type functions
    3    3
          2.60000000
          1.05000000
          0.15142000
   1.00000000   0.00000000   0.00000000
   0.00000000   1.00000000   0.00000000
   0.00000000   0.00000000   1.00000000
* g-type functions
    2    2
          1.70000000
          0.18928000
   1.00000000   0.00000000
   0.00000000   1.00000000

/Ne.aug-pc-3.Jensen.15s10p5d3f2g.7s6p5d3f2g.
F. Jensen. J. Phys. Chem. A 111 (2007) 11198-11204. doi:10.1021/jp068677h
NEON (15s,10p,5d,3f,2g) -> [7s,6p,5d,3f,2g]
    10.0   4
* s-type functions
   15    7
     270660.00000000
      40541.00000000
       9226.50000000
       2613.20000000
        852.39000000
        307.61000000
        119.76000000
         49.43700000
         21.36900000
          9.39210000
          3.98320000
          1.68870000
          0.68030000
          0.26024000
          0.09248000
   1.24650e-5   0.00000000   0.00000000   0.00000000   0.00000000   0.00000000   0.00000000
   0.00009678   0.00000000   0.00000000   0.00000000   0.00000000   0.00000000   0.00000000
   0.00050863   6.46630e-7   0.00000000   0.00000000   0.00000000   0.00000000   0.00000000
   0.00212860   2.74090e-5   0.00000000   0.00000000   0.00000000   0.00000000   0.00000000
   0.00759220   0.00018661   0.00000000   0.00000000   0.00000000   0.00000000   0.00000000
   0.02311600   0.00194920   0.00000000   0.00000000   0.00000000   0.00000000   0.00000000
   0.05861400   0.01177300   0.00000000   0.00000000   0.00000000   0.00000000   0.00000000
   0.10807000   0.06614600   0.00000000   0.00000000   0.00000000   0.00000000   0.00000000
   0.11660000   0.21457000   0.00000000   0.00000000   0.00000000   0.00000000   0.00000000
   0.00000000   0.42987000   0.00000000   0.00000000   0.00000000   0.00000000   0.00000000
   0.00000000   0.00000000   1.00000000   0.00000000   0.00000000   0.00000000   0.00000000
   0.00000000   0.00000000   0.00000000   1.00000000   0.00000000   0.00000000   0.00000000
   0.00000000   0.00000000   0.00000000   0.00000000   1.00000000   0.00000000   0.00000000
   0.00000000   0.00000000   0.00000000   0.00000000   0.00000000   1.00000000   0.00000000
   0.00000000   0.00000000   0.00000000   0.00000000   0.00000000   0.00000000   1.00000000
* p-type functions
   10    6
        443.45000000
        104.82000000
         33.25500000
         12.54800000
          5.14210000
          2.17830000
          0.90645000
          0.35994000
          0.13515000
          0.04721000
   0.00274680   0.00000000   0.00000000   0.00000000   0.00000000   0.00000000
   0.02308100   0.00000000   0.00000000   0.00000000   0.00000000   0.00000000
   0.11930000   0.00000000   0.00000000   0.00000000   0.00000000   0.00000000
   0.38863000   0.00000000   0.00000000   0.00000000   0.00000000   0.00000000
   0.95790000   0.00000000   0.00000000   0.00000000   0.00000000   0.00000000
   0.00000000   1.00000000   0.00000000   0.00000000   0.00000000   0.00000000
   0.00000000   0.00000000   1.00000000   0.00000000   0.00000000   0.00000000
   0.00000000   0.00000000   0.00000000   1.00000000   0.00000000   0.00000000
   0.00000000   0.00000000   0.00000000   0.00000000   1.00000000   0.00000000
   0.00000000   0.00000000   0.00000000   0.00000000   0.00000000   1.00000000
* d-type functions
    5    5
         10.00000000
          3.00000000
          1.15000000
          0.40000000
          0.14160000
   1.00000000   0.00000000   0.00000000   0.00000000   0.00000000
   0.00000000   1.00000000   0.00000000   0.00000000   0.00000000
   0.00000000   0.00000000   1.00000000   0.00000000   0.00000000
   0.00000000   0.00000000   0.00000000   1.00000000   0.00000000
   0.00000000   0.00000000   0.00000000   0.00000000   1.00000000
* f-type functions
    3    3
          2.80000000
          1.15000000
          0.18880000
   1.00000000   0.00000000   0.00000000
   0.00000000   1.00000000   0.00000000
   0.00000000   0.00000000   1.00000000
* g-type functions
    2    2
          1.80000000
          0.23600000
   1.00000000   0.00000000
   0.00000000   1.00000000

/Na.aug-pc-3.Jensen.18s13p3d2f.7s5p3d2f.
F. Jensen. J. Phys. Chem. A 111 (2007) 11198-11204. doi:10.1021/jp068677h
SODIUM (18s,13p,3d,2f) -> [7s,5p,3d,2f]
    11.0   3
* s-type functions
   18    7
     421840.00000000
      63188.00000000
      14381.00000000
       4073.70000000
       1329.10000000
        479.99000000
        187.36000000
         77.77000000
         33.79900000
         15.12700000
          6.93200000
          2.76510000
          1.13970000
          0.45213000
          0.08260300
          0.04151000
          0.01861800
          0.00765800
   1.82130e-5   0.00000000   0.00000000   0.00000000   0.00000000   0.00000000   0.00000000
   0.00014153   0.00000000   0.00000000   0.00000000   0.00000000   0.00000000   0.00000000
   0.00074380   0.00000000   0.00000000   0.00000000   0.00000000   0.00000000   0.00000000
   0.00312730  -6.58890e-6   0.00000000   0.00000000   0.00000000   0.00000000   0.00000000
   0.01124900  -1.06440e-5  -1.26410e-6   0.00000000   0.00000000   0.00000000   0.00000000
   0.03529200  -0.00026565  -1.10250e-5   0.00000000   0.00000000   0.00000000   0.00000000
   0.09539000  -0.00112860  -7.69170e-5   0.00000000   0.00000000   0.00000000   0.00000000
   0.21001000  -0.00804960  -0.00043274   0.00000000   0.00000000   0.00000000   0.00000000
   0.34417000  -0.02603700  -0.00169970   0.00000000   0.00000000   0.00000000   0.00000000
   0.32701000  -0.07062200  -0.00435420   0.00000000   0.00000000   0.00000000   0.00000000
   0.12122000  -0.01221700  -0.00178400   0.00000000   0.00000000   0.00000000   0.00000000
   0.00644090   0.26047000   0.02523700   0.00000000   0.00000000   0.00000000   0.00000000
   0.00000000   0.35925000   0.07668600   0.00000000   0.00000000   0.00000000   0.00000000
   0.00000000   0.00000000   0.11132000   0.00000000   0.00000000   0.00000000   0.00000000
   0.00000000   0.00000000   0.00000000   1.00000000   0.00000000   0.00000000   0.00000000
   0.00000000   0.00000000   0.00000000   0.00000000   1.00000000   0.00000000   0.00000000
   0.00000000   0.00000000   0.00000000   0.00000000   0.00000000   1.00000000   0.00000000
   0.00000000   0.00000000   0.00000000   0.00000000   0.00000000   0.00000000   1.00000000
* p-type functions
   13    5
       1156.80000000
        274.42000000
         89.13900000
         33.25900000
         13.55700000
          5.96240000
          2.68240000
          1.19710000
          0.51789000
          0.21331000
          0.10000000
          0.03700000
          0.01233000
   0.00015835   0.00000000   0.00000000   0.00000000   0.00000000
   0.00137160   0.00000000   0.00000000   0.00000000   0.00000000
   0.00740860   0.00000000   0.00000000   0.00000000   0.00000000
   0.03121400   0.00000000   0.00000000   0.00000000   0.00000000
   0.09092000   0.00000000   0.00000000   0.00000000   0.00000000
   0.20137000   0.00000000   0.00000000   0.00000000   0.00000000
   0.30732000   0.00000000   0.00000000   0.00000000   0.00000000
   0.33347000   0.00000000   0.00000000   0.00000000   0.00000000
   0.22947000   0.00000000   0.00000000   0.00000000   0.00000000
   0.00000000   1.00000000   0.00000000   0.00000000   0.00000000
   0.00000000   0.00000000   1.00000000   0.00000000   0.00000000
   0.00000000   0.00000000   0.00000000   1.00000000   0.00000000
   0.00000000   0.00000000   0.00000000   0.00000000   1.00000000
* d-type functions
    3    3
          0.91000000
          0.19000000
          0.03063000
   1.00000000   0.00000000   0.00000000
   0.00000000   1.00000000   0.00000000
   0.00000000   0.00000000   1.00000000
* f-type functions
    2    2
          0.27000000
          0.03829000
   1.00000000   0.00000000
   0.00000000   1.00000000

/Mg.aug-pc-3.Jensen.18s13p3d2f.7s5p3d2f.
F. Jensen. J. Phys. Chem. A 111 (2007) 11198-11204. doi:10.1021/jp068677h
MAGNESIUM (18s,13p,3d,2f) -> [7s,5p,3d,2f]
    12.0   3
* s-type functions
   18    7
     564790.00000000
      84589.00000000
      19251.00000000
       5452.80000000
       1779.10000000
        642.58000000
        250.92000000
        104.19000000
         45.27500000
         20.31800000
          9.33190000
          3.69780000
          1.57250000
          0.64949000
          0.15901000
          0.07166500
          0.02994200
          0.01155000
   7.87630e-6   0.00000000   0.00000000   0.00000000   0.00000000   0.00000000   0.00000000
   6.12150e-5   0.00000000   0.00000000   0.00000000   0.00000000   0.00000000   0.00000000
   0.00032179   0.00000000   0.00000000   0.00000000   0.00000000   0.00000000   0.00000000
   0.00135380  -2.98670e-6   0.00000000   0.00000000   0.00000000   0.00000000   0.00000000
   0.00487800  -6.39120e-6   3.79680e-6   0.00000000   0.00000000   0.00000000   0.00000000
   0.01537600  -0.00013096   3.10480e-5   0.00000000   0.00000000   0.00000000   0.00000000
   0.04208100  -0.00060781   0.00022284   0.00000000   0.00000000   0.00000000   0.00000000
   0.09518700  -0.00421360   0.00120920   0.00000000   0.00000000   0.00000000   0.00000000
   0.16414000  -0.01490900   0.00476660   0.00000000   0.00000000   0.00000000   0.00000000
   0.17119000  -0.04186800   0.01026900   0.00000000   0.00000000   0.00000000   0.00000000
   0.07662600  -0.02166700   0.00471000   0.00000000   0.00000000   0.00000000   0.00000000
   0.00637870   0.14599000  -0.01339800   0.00000000   0.00000000   0.00000000   0.00000000
   0.00000000   0.20166000   0.23482000   0.00000000   0.00000000   0.00000000   0.00000000
   0.00000000   0.00000000   0.48791000   0.00000000   0.00000000   0.00000000   0.00000000
   0.00000000   0.00000000   0.00000000   1.00000000   0.00000000   0.00000000   0.00000000
   0.00000000   0.00000000   0.00000000   0.00000000   1.00000000   0.00000000   0.00000000
   0.00000000   0.00000000   0.00000000   0.00000000   0.00000000   1.00000000   0.00000000
   0.00000000   0.00000000   0.00000000   0.00000000   0.00000000   0.00000000   1.00000000
* p-type functions
   13    5
       1516.90000000
        359.79000000
        116.76000000
         43.58000000
         17.92600000
          7.93560000
          3.60380000
          1.64410000
          0.74112000
          0.31666000
          0.14900000
          0.05500000
          0.01833000
   7.16080e-5   0.00000000   0.00000000   0.00000000   0.00000000
   0.00062314   0.00000000   0.00000000   0.00000000   0.00000000
   0.00341360   0.00000000   0.00000000   0.00000000   0.00000000
   0.01453100   0.00000000   0.00000000   0.00000000   0.00000000
   0.04287000   0.00000000   0.00000000   0.00000000   0.00000000
   0.09778900   0.00000000   0.00000000   0.00000000   0.00000000
   0.15457000   0.00000000   0.00000000   0.00000000   0.00000000
   0.16828000   0.00000000   0.00000000   0.00000000   0.00000000
   0.11333000   0.00000000   0.00000000   0.00000000   0.00000000
   0.00000000   1.00000000   0.00000000   0.00000000   0.00000000
   0.00000000   0.00000000   1.00000000   0.00000000   0.00000000
   0.00000000   0.00000000   0.00000000   1.00000000   0.00000000
   0.00000000   0.00000000   0.00000000   0.00000000   1.00000000
* d-type functions
    3    3
          1.20000000
          0.25000000
          0.04619000
   1.00000000   0.00000000   0.00000000
   0.00000000   1.00000000   0.00000000
   0.00000000   0.00000000   1.00000000
* f-type functions
    2    2
          0.33000000
          0.05774500
   1.00000000   0.00000000
   0.00000000   1.00000000

/Al.aug-pc-3.Jensen.18s14p5d3f2g.7s6p5d3f2g.
F. Jensen. J. Phys. Chem. A 111 (2007) 11198-11204. doi:10.1021/jp068677h
ALUMINIUM (18s,14p,5d,3f,2g) -> [7s,6p,5d,3f,2g]
    13.0   4
* s-type functions
   18    7
     721490.00000000
     108090.00000000
      24605.00000000
       6971.40000000
       2274.90000000
        821.60000000
        320.78000000
        133.15000000
         57.81700000
         25.95400000
         11.89900000
          4.74990000
          2.06880000
          0.87779000
          0.24951000
          0.11462000
          0.04819300
          0.01869000
   1.41920e-5   0.00000000   0.00000000   0.00000000   0.00000000   0.00000000   0.00000000
   0.00011026   0.00000000   0.00000000   0.00000000   0.00000000   0.00000000   0.00000000
   0.00057946   0.00000000   0.00000000   0.00000000   0.00000000   0.00000000   0.00000000
   0.00243790  -4.93330e-6   0.00000000   0.00000000   0.00000000   0.00000000   0.00000000
   0.00879450  -8.62570e-6  -1.59130e-7   0.00000000   0.00000000   0.00000000   0.00000000
   0.02782100  -0.00020373  -1.31770e-6   0.00000000   0.00000000   0.00000000   0.00000000
   0.07681600  -0.00091455  -9.82250e-6   0.00000000   0.00000000   0.00000000   0.00000000
   0.17710000  -0.00657840  -0.00006244   0.00000000   0.00000000   0.00000000   0.00000000
   0.31603000  -0.02395500  -0.00030825   0.00000000   0.00000000   0.00000000   0.00000000
   0.35108000  -0.07103100  -0.00125880   0.00000000   0.00000000   0.00000000   0.00000000
   0.17619000  -0.05045400  -0.00186120   0.00000000   0.00000000   0.00000000   0.00000000
   0.01826800   0.22311000   0.01120900   0.00000000   0.00000000   0.00000000   0.00000000
   0.00000000   0.34708000   0.08354100   0.00000000   0.00000000   0.00000000   0.00000000
   0.00000000   0.00000000   0.13466000   0.00000000   0.00000000   0.00000000   0.00000000
   0.00000000   0.00000000   0.00000000   1.00000000   0.00000000   0.00000000   0.00000000
   0.00000000   0.00000000   0.00000000   0.00000000   1.00000000   0.00000000   0.00000000
   0.00000000   0.00000000   0.00000000   0.00000000   0.00000000   1.00000000   0.00000000
   0.00000000   0.00000000   0.00000000   0.00000000   0.00000000   0.00000000   1.00000000
* p-type functions
   14    6
       2019.70000000
        478.63000000
        155.02000000
         57.90400000
         24.14000000
         10.78900000
          4.97300000
          2.31610000
          1.07910000
          0.49159000
          0.20482000
          0.07925600
          0.02892800
          0.00983900
   0.00012156   0.00000000   0.00000000   0.00000000   0.00000000   0.00000000
   0.00106070   5.42360e-5   0.00000000   0.00000000   0.00000000   0.00000000
   0.00593650  -3.76470e-5   0.00000000   0.00000000   0.00000000   0.00000000
   0.02538200   0.00089364   0.00000000   0.00000000   0.00000000   0.00000000
   0.07618800  -0.00359030   0.00000000   0.00000000   0.00000000   0.00000000
   0.17997000  -0.00368970   0.00000000   0.00000000   0.00000000   0.00000000
   0.30275000  -0.05406900   0.00000000   0.00000000   0.00000000   0.00000000
   0.34478000  -0.03337300   0.00000000   0.00000000   0.00000000   0.00000000
   0.23763000   0.00454730   0.00000000   0.00000000   0.00000000   0.00000000
   0.00000000   0.87054000   0.00000000   0.00000000   0.00000000   0.00000000
   0.00000000   0.00000000   1.00000000   0.00000000   0.00000000   0.00000000
   0.00000000   0.00000000   0.00000000   1.00000000   0.00000000   0.00000000
   0.00000000   0.00000000   0.00000000   0.00000000   1.00000000   0.00000000
   0.00000000   0.00000000   0.00000000   0.00000000   0.00000000   1.00000000
* d-type functions
    5    5
          5.60000000
          1.47000000
          0.44000000
          0.16000000
          0.02952000
   1.00000000   0.00000000   0.00000000   0.00000000   0.00000000
   0.00000000   1.00000000   0.00000000   0.00000000   0.00000000
   0.00000000   0.00000000   1.00000000   0.00000000   0.00000000
   0.00000000   0.00000000   0.00000000   1.00000000   0.00000000
   0.00000000   0.00000000   0.00000000   0.00000000   1.00000000
* f-type functions
    3    3
          0.96000000
          0.32000000
          0.03936000
   1.00000000   0.00000000   0.00000000
   0.00000000   1.00000000   0.00000000
   0.00000000   0.00000000   1.00000000
* g-type functions
    2    2
          0.58000000
          0.04920000
   1.00000000   0.00000000
   0.00000000   1.00000000

/Si.aug-pc-3.Jensen.18s14p5d3f2g.7s6p5d3f2g.
F. Jensen, T. Helgaker. J. Chem. Phys. 121 (2004) 3463-3470. doi:10.1063/1.1756866
SILICON (18s,14p,5d,3f,2g) -> [7s,6p,5d,3f,2g]
    14.0   4
* s-type functions
   18    7
     877450.00000000
     131450.00000000
      29929.00000000
       8480.20000000
       2767.20000000
        999.40000000
        390.14000000
        161.91000000
         70.30400000
         31.57900000
         14.48000000
          5.83830000
          2.59460000
          1.12500000
          0.35356000
          0.16160000
          0.06726100
          0.02610500
   1.33960e-5   0.00000000   0.00000000   0.00000000   0.00000000   0.00000000   0.00000000
   0.00010407   0.00000000   0.00000000   0.00000000   0.00000000   0.00000000   0.00000000
   0.00054678   0.00000000   0.00000000   0.00000000   0.00000000   0.00000000   0.00000000
   0.00230100  -4.22290e-6   0.00000000   0.00000000   0.00000000   0.00000000   0.00000000
   0.00830540  -6.33560e-6  -1.18300e-6   0.00000000   0.00000000   0.00000000   0.00000000
   0.02632200  -0.00016910  -1.03490e-5   0.00000000   0.00000000   0.00000000   0.00000000
   0.07303300  -0.00073715  -7.43220e-5   0.00000000   0.00000000   0.00000000   0.00000000
   0.17010000  -0.00544610  -0.00043713   0.00000000   0.00000000   0.00000000   0.00000000
   0.30891000  -0.02001000  -0.00193740   0.00000000   0.00000000   0.00000000   0.00000000
   0.35473000  -0.06137300  -0.00585630   0.00000000   0.00000000   0.00000000   0.00000000
   0.18872000  -0.04900200  -0.00683610   0.00000000   0.00000000   0.00000000   0.00000000
   0.02195300   0.17627000   0.02787000   0.00000000   0.00000000   0.00000000   0.00000000
   0.00000000   0.30080000   0.12767000   0.00000000   0.00000000   0.00000000   0.00000000
   0.00000000   0.00000000   0.17422000   0.00000000   0.00000000   0.00000000   0.00000000
   0.00000000   0.00000000   0.00000000   1.00000000   0.00000000   0.00000000   0.00000000
   0.00000000   0.00000000   0.00000000   0.00000000   1.00000000   0.00000000   0.00000000
   0.00000000   0.00000000   0.00000000   0.00000000   0.00000000   1.00000000   0.00000000
   0.00000000   0.00000000   0.00000000   0.00000000   0.00000000   0.00000000   1.00000000
* p-type functions
   14    6
       2303.10000000
        545.84000000
        177.05000000
         66.37700000
         27.60100000
         12.34300000
          5.68940000
          2.64060000
          1.20940000
          0.52013000
          0.23256000
          0.09814100
          0.03836000
          0.01456000
   0.00013105   0.00000000   0.00000000   0.00000000   0.00000000   0.00000000
   0.00114650   0.00000612   0.00000000   0.00000000   0.00000000   0.00000000
   0.00636520  -5.90220e-6   0.00000000   0.00000000   0.00000000   0.00000000
   0.02719700   8.64530e-5   0.00000000   0.00000000   0.00000000   0.00000000
   0.08192500  -0.00053049   0.00000000   0.00000000   0.00000000   0.00000000
   0.19147000  -0.00089038   0.00000000   0.00000000   0.00000000   0.00000000
   0.31583000  -0.00798250   0.00000000   0.00000000   0.00000000   0.00000000
   0.35183000  -0.00376310   0.00000000   0.00000000   0.00000000   0.00000000
   0.21292000   0.01078700   0.00000000   0.00000000   0.00000000   0.00000000
   0.00000000   0.18186000   0.00000000   0.00000000   0.00000000   0.00000000
   0.00000000   0.00000000   1.00000000   0.00000000   0.00000000   0.00000000
   0.00000000   0.00000000   0.00000000   1.00000000   0.00000000   0.00000000
   0.00000000   0.00000000   0.00000000   0.00000000   1.00000000   0.00000000
   0.00000000   0.00000000   0.00000000   0.00000000   0.00000000   1.00000000
* d-type functions
    5    5
          6.66000000
          1.75000000
          0.52000000
          0.19000000
          0.04368000
   1.00000000   0.00000000   0.00000000   0.00000000   0.00000000
   0.00000000   1.00000000   0.00000000   0.00000000   0.00000000
   0.00000000   0.00000000   1.00000000   0.00000000   0.00000000
   0.00000000   0.00000000   0.00000000   1.00000000   0.00000000
   0.00000000   0.00000000   0.00000000   0.00000000   1.00000000
* f-type functions
    3    3
          1.15000000
          0.38000000
          0.05824000
   1.00000000   0.00000000   0.00000000
   0.00000000   1.00000000   0.00000000
   0.00000000   0.00000000   1.00000000
* g-type functions
    2    2
          0.65000000
          0.07280000
   1.00000000   0.00000000
   0.00000000   1.00000000

/P.aug-pc-3.Jensen.18s14p5d3f2g.7s6p5d3f2g.
F. Jensen, T. Helgaker. J. Chem. Phys. 121 (2004) 3463-3470. doi:10.1063/1.1756866
PHOSPHORUS (18s,14p,5d,3f,2g) -> [7s,6p,5d,3f,2g]
    15.0   4
* s-type functions
   18    7
    1063700.00000000
     160000.00000000
      36513.00000000
      10359.00000000
       3382.80000000
       1222.30000000
        477.30000000
        198.09000000
         85.99400000
         38.62700000
         17.68800000
          7.25510000
          3.26990000
          1.43130000
          0.47047000
          0.21289000
          0.08774200
          0.03340800
   1.25090e-5   0.00000000   0.00000000   0.00000000   0.00000000   0.00000000   0.00000000
   9.66710e-5   0.00000000   0.00000000   0.00000000   0.00000000   0.00000000   0.00000000
   0.00050682   0.00000000   0.00000000   0.00000000   0.00000000   0.00000000   0.00000000
   0.00213100  -3.45020e-6   0.00000000   0.00000000   0.00000000   0.00000000   0.00000000
   0.00769250  -5.34270e-6  -1.75570e-6   0.00000000   0.00000000   0.00000000   0.00000000
   0.02442100  -0.00013814  -1.58010e-5   0.00000000   0.00000000   0.00000000   0.00000000
   0.06812200  -0.00060882  -0.00011353   0.00000000   0.00000000   0.00000000   0.00000000
   0.16069000  -0.00450640  -0.00067329   0.00000000   0.00000000   0.00000000   0.00000000
   0.29867000  -0.01707100  -0.00303140   0.00000000   0.00000000   0.00000000   0.00000000
   0.35878000  -0.05395400  -0.00922920   0.00000000   0.00000000   0.00000000   0.00000000
   0.20616000  -0.05149400  -0.01193600   0.00000000   0.00000000   0.00000000   0.00000000
   0.02738600   0.13758000   0.03572500   0.00000000   0.00000000   0.00000000   0.00000000
   0.00000000   0.27525000   0.15875000   0.00000000   0.00000000   0.00000000   0.00000000
   0.00000000   0.00000000   0.21236000   0.00000000   0.00000000   0.00000000   0.00000000
   0.00000000   0.00000000   0.00000000   1.00000000   0.00000000   0.00000000   0.00000000
   0.00000000   0.00000000   0.00000000   0.00000000   1.00000000   0.00000000   0.00000000
   0.00000000   0.00000000   0.00000000   0.00000000   0.00000000   1.00000000   0.00000000
   0.00000000   0.00000000   0.00000000   0.00000000   0.00000000   0.00000000   1.00000000
* p-type functions
   14    6
       2762.20000000
        654.78000000
        212.58000000
         79.89500000
         33.36600000
         14.98600000
          6.96800000
          3.28180000
          1.52470000
          0.66924000
          0.29929000
          0.12811000
          0.05099200
          0.01880000
   0.00012618   0.00000000   0.00000000   0.00000000   0.00000000   0.00000000
   0.00110480   5.95920e-6   0.00000000   0.00000000   0.00000000   0.00000000
   0.00614830  -6.80860e-6   0.00000000   0.00000000   0.00000000   0.00000000
   0.02630700   7.45130e-5   0.00000000   0.00000000   0.00000000   0.00000000
   0.07986600  -0.00060664   0.00000000   0.00000000   0.00000000   0.00000000
   0.18840000  -0.00126040   0.00000000   0.00000000   0.00000000   0.00000000
   0.31362000  -0.00947190   0.00000000   0.00000000   0.00000000   0.00000000
   0.35326000  -0.00440140   0.00000000   0.00000000   0.00000000   0.00000000
   0.21366000   0.01246600   0.00000000   0.00000000   0.00000000   0.00000000
   0.00000000   0.21343000   0.00000000   0.00000000   0.00000000   0.00000000
   0.00000000   0.00000000   1.00000000   0.00000000   0.00000000   0.00000000
   0.00000000   0.00000000   0.00000000   1.00000000   0.00000000   0.00000000
   0.00000000   0.00000000   0.00000000   0.00000000   1.00000000   0.00000000
   0.00000000   0.00000000   0.00000000   0.00000000   0.00000000   1.00000000
* d-type functions
    5    5
          7.71000000
          2.03000000
          0.60000000
          0.22000000
          0.05639900
   1.00000000   0.00000000   0.00000000   0.00000000   0.00000000
   0.00000000   1.00000000   0.00000000   0.00000000   0.00000000
   0.00000000   0.00000000   1.00000000   0.00000000   0.00000000
   0.00000000   0.00000000   0.00000000   1.00000000   0.00000000
   0.00000000   0.00000000   0.00000000   0.00000000   1.00000000
* f-type functions
    3    3
          1.34000000
          0.45000000
          0.07519900
   1.00000000   0.00000000   0.00000000
   0.00000000   1.00000000   0.00000000
   0.00000000   0.00000000   1.00000000
* g-type functions
    2    2
          0.72000000
          0.09399900
   1.00000000   0.00000000
   0.00000000   1.00000000

/S.aug-pc-3.Jensen.18s14p5d3f2g.7s6p5d3f2g.
F. Jensen, T. Helgaker. J. Chem. Phys. 121 (2004) 3463-3470. doi:10.1063/1.1756866
SULFUR (18s,14p,5d,3f,2g) -> [7s,6p,5d,3f,2g]
    16.0   4
* s-type functions
   18    7
    1250400.00000000
     188080.00000000
      42918.00000000
      12179.00000000
       3978.70000000
       1438.10000000
        561.67000000
        233.11000000
        101.22000000
         45.49300000
         20.84700000
          8.64920000
          3.94560000
          1.74720000
          0.59953000
          0.27127000
          0.11080000
          0.04183700
   1.20230e-5   0.00000000   0.00000000   0.00000000   0.00000000   0.00000000   0.00000000
   9.29350e-5   0.00000000   0.00000000   0.00000000   0.00000000   0.00000000   0.00000000
   0.00048720   0.00000000   0.00000000   0.00000000   0.00000000   0.00000000   0.00000000
   0.00204790  -3.03830e-6   0.00000000   0.00000000   0.00000000   0.00000000   0.00000000
   0.00738970  -4.64560e-6  -2.30670e-6   0.00000000   0.00000000   0.00000000   0.00000000
   0.02348100  -0.00012316  -1.95560e-5   0.00000000   0.00000000   0.00000000   0.00000000
   0.06568500  -0.00054723  -0.00014386   0.00000000   0.00000000   0.00000000   0.00000000
   0.15597000  -0.00407020  -0.00084419   0.00000000   0.00000000   0.00000000   0.00000000
   0.29322000  -0.01565200  -0.00386210   0.00000000   0.00000000   0.00000000   0.00000000
   0.36011000  -0.05030900  -0.01181300   0.00000000   0.00000000   0.00000000   0.00000000
   0.21506000  -0.05151700  -0.01611400   0.00000000   0.00000000   0.00000000   0.00000000
   0.03078200   0.11823000   0.04149200   0.00000000   0.00000000   0.00000000   0.00000000
   0.00000000   0.25628000   0.18517000   0.00000000   0.00000000   0.00000000   0.00000000
   0.00000000   0.00000000   0.23963000   0.00000000   0.00000000   0.00000000   0.00000000
   0.00000000   0.00000000   0.00000000   1.00000000   0.00000000   0.00000000   0.00000000
   0.00000000   0.00000000   0.00000000   0.00000000   1.00000000   0.00000000   0.00000000
   0.00000000   0.00000000   0.00000000   0.00000000   0.00000000   1.00000000   0.00000000
   0.00000000   0.00000000   0.00000000   0.00000000   0.00000000   0.00000000   1.00000000
* p-type functions
   14    6
       3285.80000000
        778.93000000
        252.76000000
         95.10000000
         39.82000000
         17.92500000
          8.36990000
          3.96550000
          1.85400000
          0.81971000
          0.36117000
          0.15097000
          0.05962000
          0.02182000
   0.00012062   0.00000000   0.00000000   0.00000000   0.00000000   0.00000000
   0.00105870   4.23970e-6   0.00000000   0.00000000   0.00000000   0.00000000
   0.00591910  -7.43330e-6   0.00000000   0.00000000   0.00000000   0.00000000
   0.02540500   2.77260e-5   0.00000000   0.00000000   0.00000000   0.00000000
   0.07785900  -0.00065028   0.00000000   0.00000000   0.00000000   0.00000000
   0.18578000  -0.00189330   0.00000000   0.00000000   0.00000000   0.00000000
   0.31347000  -0.01019100   0.00000000   0.00000000   0.00000000   0.00000000
   0.35718000  -0.00762910   0.00000000   0.00000000   0.00000000   0.00000000
   0.21179000   0.02103200   0.00000000   0.00000000   0.00000000   0.00000000
   0.00000000   0.24347000   0.00000000   0.00000000   0.00000000   0.00000000
   0.00000000   0.00000000   1.00000000   0.00000000   0.00000000   0.00000000
   0.00000000   0.00000000   0.00000000   1.00000000   0.00000000   0.00000000
   0.00000000   0.00000000   0.00000000   0.00000000   1.00000000   0.00000000
   0.00000000   0.00000000   0.00000000   0.00000000   0.00000000   1.00000000
* d-type functions
    5    5
          8.76000000
          2.30000000
          0.68000000
          0.25000000
          0.06546100
   1.00000000   0.00000000   0.00000000   0.00000000   0.00000000
   0.00000000   1.00000000   0.00000000   0.00000000   0.00000000
   0.00000000   0.00000000   1.00000000   0.00000000   0.00000000
   0.00000000   0.00000000   0.00000000   1.00000000   0.00000000
   0.00000000   0.00000000   0.00000000   0.00000000   1.00000000
* f-type functions
    3    3
          1.53000000
          0.51000000
          0.08728200
   1.00000000   0.00000000   0.00000000
   0.00000000   1.00000000   0.00000000
   0.00000000   0.00000000   1.00000000
* g-type functions
    2    2
          0.79000000
          0.10910000
   1.00000000   0.00000000
   0.00000000   1.00000000

/Cl.aug-pc-3.Jensen.18s14p5d3f2g.7s6p5d3f2g.
F. Jensen, T. Helgaker. J. Chem. Phys. 121 (2004) 3463-3470. doi:10.1063/1.1756866
CHLORINE (18s,14p,5d,3f,2g) -> [7s,6p,5d,3f,2g]
    17.0   4
* s-type functions
   18    7
    1461100.00000000
     219590.00000000
      50085.00000000
      14206.00000000
       4638.90000000
       1676.30000000
        654.51000000
        271.53000000
        117.87000000
         52.98400000
         24.29200000
         10.18400000
          4.69280000
          2.09740000
          0.74867000
          0.33613000
          0.13573000
          0.05071100
   1.15340e-5   0.00000000   0.00000000   0.00000000   0.00000000   0.00000000   0.00000000
   8.92350e-5   0.00000000   0.00000000   0.00000000   0.00000000   0.00000000   0.00000000
   0.00046811   0.00000000   0.00000000   0.00000000   0.00000000   0.00000000   0.00000000
   0.00196920  -2.70930e-6   0.00000000   0.00000000   0.00000000   0.00000000   0.00000000
   0.00711120  -4.31910e-6  -2.87400e-6   0.00000000   0.00000000   0.00000000   0.00000000
   0.02262500  -0.00010907  -2.49490e-5   0.00000000   0.00000000   0.00000000   0.00000000
   0.06348800  -0.00048853  -0.00018272   0.00000000   0.00000000   0.00000000   0.00000000
   0.15173000  -0.00363270  -0.00108210   0.00000000   0.00000000   0.00000000   0.00000000
   0.28826000  -0.01414200  -0.00498460   0.00000000   0.00000000   0.00000000   0.00000000
   0.36113000  -0.04616700  -0.01541400   0.00000000   0.00000000   0.00000000   0.00000000
   0.22303000  -0.05010700  -0.02177400   0.00000000   0.00000000   0.00000000   0.00000000
   0.03403100   0.09999900   0.04888100   0.00000000   0.00000000   0.00000000   0.00000000
   0.00000000   0.23750000   0.21808000   0.00000000   0.00000000   0.00000000   0.00000000
   0.00000000   0.00000000   0.27412000   0.00000000   0.00000000   0.00000000   0.00000000
   0.00000000   0.00000000   0.00000000   1.00000000   0.00000000   0.00000000   0.00000000
   0.00000000   0.00000000   0.00000000   0.00000000   1.00000000   0.00000000   0.00000000
   0.00000000   0.00000000   0.00000000   0.00000000   0.00000000   1.00000000   0.00000000
   0.00000000   0.00000000   0.00000000   0.00000000   0.00000000   0.00000000   1.00000000
* p-type functions
   14    6
       3845.70000000
        911.23000000
        295.64000000
        111.40000000
         46.76700000
         21.10600000
          9.90580000
          4.73470000
          2.23640000
          1.00710000
          0.44369000
          0.18488000
          0.07326800
          0.02690400
   0.00011653   0.00000000   0.00000000   0.00000000   0.00000000   0.00000000
   0.00102500   3.57610e-6   0.00000000   0.00000000   0.00000000   0.00000000
   0.00574810  -7.77680e-6   0.00000000   0.00000000   0.00000000   0.00000000
   0.02470000   6.76660e-6   0.00000000   0.00000000   0.00000000   0.00000000
   0.07626300  -0.00069394   0.00000000   0.00000000   0.00000000   0.00000000
   0.18343000  -0.00225630   0.00000000   0.00000000   0.00000000   0.00000000
   0.31219000  -0.01101800   0.00000000   0.00000000   0.00000000   0.00000000
   0.35836000  -0.00936630   0.00000000   0.00000000   0.00000000   0.00000000
   0.21176000   0.02517100   0.00000000   0.00000000   0.00000000   0.00000000
   0.00000000   0.25574000   0.00000000   0.00000000   0.00000000   0.00000000
   0.00000000   0.00000000   1.00000000   0.00000000   0.00000000   0.00000000
   0.00000000   0.00000000   0.00000000   1.00000000   0.00000000   0.00000000
   0.00000000   0.00000000   0.00000000   0.00000000   1.00000000   0.00000000
   0.00000000   0.00000000   0.00000000   0.00000000   0.00000000   1.00000000
* d-type functions
    5    5
          9.81000000
          2.58000000
          0.76000000
          0.28000000
          0.08071100
   1.00000000   0.00000000   0.00000000   0.00000000   0.00000000
   0.00000000   1.00000000   0.00000000   0.00000000   0.00000000
   0.00000000   0.00000000   1.00000000   0.00000000   0.00000000
   0.00000000   0.00000000   0.00000000   1.00000000   0.00000000
   0.00000000   0.00000000   0.00000000   0.00000000   1.00000000
* f-type functions
    3    3
          1.72000000
          0.57000000
          0.10761000
   1.00000000   0.00000000   0.00000000
   0.00000000   1.00000000   0.00000000
   0.00000000   0.00000000   1.00000000
* g-type functions
    2    2
          0.86000000
          0.13452000
   1.00000000   0.00000000
   0.00000000   1.00000000

/Ar.aug-pc-3.Jensen.18s14p5d3f2g.7s6p5d3f2g.
F. Jensen. J. Phys. Chem. A 111 (2007) 11198-11204. doi:10.1021/jp068677h
ARGON (18s,14p,5d,3f,2g) -> [7s,6p,5d,3f,2g]
    18.0   4
* s-type functions
   18    7
    1702200.00000000
     254910.00000000
      58011.00000000
      16431.00000000
       5360.50000000
       1935.40000000
        755.09000000
        313.08000000
        135.88000000
         61.09200000
         28.02400000
         11.86000000
          5.51170000
          2.48220000
          0.91761000
          0.40703000
          0.16238000
          0.05999000
   5.51030e-6   0.00000000   0.00000000   0.00000000   0.00000000   0.00000000   0.00000000
   4.28350e-5   0.00000000   0.00000000   0.00000000   0.00000000   0.00000000   0.00000000
   0.00022523   0.00000000   0.00000000   0.00000000   0.00000000   0.00000000   0.00000000
   0.00094887  -1.20360e-6   0.00000000   0.00000000   0.00000000   0.00000000   0.00000000
   0.00343160  -2.00190e-6  -1.62490e-6   0.00000000   0.00000000   0.00000000   0.00000000
   0.01093900  -4.94290e-5  -1.42250e-5   0.00000000   0.00000000   0.00000000   0.00000000
   0.03079100  -0.00022448  -0.00010427   0.00000000   0.00000000   0.00000000   0.00000000
   0.07398700  -0.00166520  -0.00062078   0.00000000   0.00000000   0.00000000   0.00000000
   0.14187000  -0.00657890  -0.00288130   0.00000000   0.00000000   0.00000000   0.00000000
   0.18089000  -0.02173400  -0.00902010   0.00000000   0.00000000   0.00000000   0.00000000
   0.11508000  -0.02485100  -0.01322600   0.00000000   0.00000000   0.00000000   0.00000000
   0.01857900   0.04358600   0.02632900   0.00000000   0.00000000   0.00000000   0.00000000
   0.00000000   0.11336000   0.12105000   0.00000000   0.00000000   0.00000000   0.00000000
   0.00000000   0.00000000   0.15170000   0.00000000   0.00000000   0.00000000   0.00000000
   0.00000000   0.00000000   0.00000000   1.00000000   0.00000000   0.00000000   0.00000000
   0.00000000   0.00000000   0.00000000   0.00000000   1.00000000   0.00000000   0.00000000
   0.00000000   0.00000000   0.00000000   0.00000000   0.00000000   1.00000000   0.00000000
   0.00000000   0.00000000   0.00000000   0.00000000   0.00000000   0.00000000   1.00000000
* p-type functions
   14    6
       4415.50000000
       1046.30000000
        339.54000000
        128.10000000
         53.82300000
         24.30700000
         11.44000000
          5.51320000
          2.63310000
          1.21090000
          0.53411000
          0.22314000
          0.08879200
          0.03273000
   5.72820e-5   0.00000000   0.00000000   0.00000000   0.00000000   0.00000000
   0.00050427   1.47880e-6   0.00000000   0.00000000   0.00000000   0.00000000
   0.00283210  -4.22610e-6   0.00000000   0.00000000   0.00000000   0.00000000
   0.01218600  -6.94260e-6   0.00000000   0.00000000   0.00000000   0.00000000
   0.03792400  -0.00037331   0.00000000   0.00000000   0.00000000   0.00000000
   0.09176200  -0.00132140   0.00000000   0.00000000   0.00000000   0.00000000
   0.15656000  -0.00599320   0.00000000   0.00000000   0.00000000   0.00000000
   0.17875000  -0.00517140   0.00000000   0.00000000   0.00000000   0.00000000
   0.10447000   0.01411000   0.00000000   0.00000000   0.00000000   0.00000000
   0.00000000   0.13276000   0.00000000   0.00000000   0.00000000   0.00000000
   0.00000000   0.00000000   1.00000000   0.00000000   0.00000000   0.00000000
   0.00000000   0.00000000   0.00000000   1.00000000   0.00000000   0.00000000
   0.00000000   0.00000000   0.00000000   0.00000000   1.00000000   0.00000000
   0.00000000   0.00000000   0.00000000   0.00000000   0.00000000   1.00000000
* d-type functions
    5    5
         10.86000000
          2.86000000
          0.84000000
          0.31000000
          0.09819000
   1.00000000   0.00000000   0.00000000   0.00000000   0.00000000
   0.00000000   1.00000000   0.00000000   0.00000000   0.00000000
   0.00000000   0.00000000   1.00000000   0.00000000   0.00000000
   0.00000000   0.00000000   0.00000000   1.00000000   0.00000000
   0.00000000   0.00000000   0.00000000   0.00000000   1.00000000
* f-type functions
    3    3
          1.91000000
          0.63000000
          0.13090000
   1.00000000   0.00000000   0.00000000
   0.00000000   1.00000000   0.00000000
   0.00000000   0.00000000   1.00000000
* g-type functions
    2    2
          0.93000000
          0.16360000
   1.00000000   0.00000000
   0.00000000   1.00000000

/K.aug-pc-3.Jensen.21s15p7d2f.8s6p5d2f.
F. Jensen. J. Chem. Phys. 136 (2012) 114107. doi:10.1063/1.3690460
POTASSIUM (21s,15p,7d,2f) -> [8s,6p,5d,2f]
    19.0   3
* s-type functions
   21    8
    2037500.00000000
     305160.00000000
      69446.00000000
      19669.00000000
       6417.10000000
       2316.90000000
        903.83000000
        374.63000000
        162.54000000
         73.14300000
         33.63300000
         14.69300000
          6.85190000
          3.11300000
          1.23310000
          0.59366000
          0.25315000
          0.05250500
          0.02866700
          0.01399600
          0.00622510
   1.39370e-5  -2.67090e-6   7.33570e-7   4.75650e-7   0.00000000   0.00000000   0.00000000   0.00000000
   0.00010833  -2.07970e-5   5.70060e-6   3.69580e-6   0.00000000   0.00000000   0.00000000   0.00000000
   0.00056967  -0.00010915   3.00070e-5   1.94580e-5   0.00000000   0.00000000   0.00000000   0.00000000
   0.00240080  -0.00046210   0.00012656   0.00008205   0.00000000   0.00000000   0.00000000   0.00000000
   0.00868730  -0.00167220   0.00046045   0.00029861   0.00000000   0.00000000   0.00000000   0.00000000
   0.02775700  -0.00542660   0.00148680   0.00096393   0.00000000   0.00000000   0.00000000   0.00000000
   0.07853900  -0.01565900   0.00433330   0.00281160   0.00000000   0.00000000   0.00000000   0.00000000
   0.19113000  -0.04071800   0.01123200   0.00728770   0.00000000   0.00000000   0.00000000   0.00000000
   0.37483000  -0.08969500   0.02536200   0.01649000   0.00000000   0.00000000   0.00000000   0.00000000
   0.50000000  -0.15484000   0.04423100   0.02880700   0.00000000   0.00000000   0.00000000   0.00000000
   0.34575000  -0.15303000   0.04779900   0.03138300   0.00000000   0.00000000   0.00000000   0.00000000
   0.06431700   0.09327500  -0.03498300  -0.02330000   0.00000000   0.00000000   0.00000000   0.00000000
  -0.00462610   0.50000000  -0.21458000  -0.14600000   0.00000000   0.00000000   0.00000000   0.00000000
   0.00210930   0.43049000  -0.29043000  -0.21031000   0.00000000   0.00000000   0.00000000   0.00000000
  -0.00106500   0.06277200   0.15465000   0.13017000   0.00000000   0.00000000   0.00000000   0.00000000
   0.00061749  -0.00892690   0.50000000   0.50000000   0.00000000   0.00000000   0.00000000   0.00000000
  -0.00021718   0.00229750   0.26264000   0.47675000   0.00000000   0.00000000   0.00000000   0.00000000
   0.00000000   0.00000000   0.00000000   0.00000000   1.00000000   0.00000000   0.00000000   0.00000000
   0.00000000   0.00000000   0.00000000   0.00000000   0.00000000   1.00000000   0.00000000   0.00000000
   0.00000000   0.00000000   0.00000000   0.00000000   0.00000000   0.00000000   1.00000000   0.00000000
   0.00000000   0.00000000   0.00000000   0.00000000   0.00000000   0.00000000   0.00000000   1.00000000
* p-type functions
   15    6
       5349.80000000
       1267.60000000
        411.13000000
        155.34000000
         65.68400000
         29.79900000
         14.13600000
          6.88020000
          3.32540000
          1.56550000
          0.71868000
          0.31751000
          0.13289000
          0.03800000
          0.01027800
   0.00014109  -3.57910e-5   0.00000000   0.00000000   0.00000000   0.00000000
   0.00124600  -0.00031191   0.00000000   0.00000000   0.00000000   0.00000000
   0.00703980  -0.00179440   0.00000000   0.00000000   0.00000000   0.00000000
   0.03038100  -0.00769530   0.00000000   0.00000000   0.00000000   0.00000000
   0.09532400  -0.02497000   0.00000000   0.00000000   0.00000000   0.00000000
   0.23597000  -0.06250500   0.00000000   0.00000000   0.00000000   0.00000000
   0.41435000  -0.11872000   0.00000000   0.00000000   0.00000000   0.00000000
   0.50000000  -0.14011000   0.00000000   0.00000000   0.00000000   0.00000000
   0.32581000  -0.06093300   0.00000000   0.00000000   0.00000000   0.00000000
   0.07205800   0.25777000   0.00000000   0.00000000   0.00000000   0.00000000
  -0.00039845   0.50000000   0.00000000   0.00000000   0.00000000   0.00000000
   0.00000000   0.00000000   1.00000000   0.00000000   0.00000000   0.00000000
   0.00000000   0.00000000   0.00000000   1.00000000   0.00000000   0.00000000
   0.00000000   0.00000000   0.00000000   0.00000000   1.00000000   0.00000000
   0.00000000   0.00000000   0.00000000   0.00000000   0.00000000   1.00000000
* d-type functions
    7    5
         12.57000000
          3.41000000
          1.05200000
          0.32100000
          0.08280000
          0.02120000
          0.00516360
   0.04183200   0.00000000   0.00000000   0.00000000   0.00000000
   0.19753000   0.00000000   0.00000000   0.00000000   0.00000000
   0.50000000   0.00000000   0.00000000   0.00000000   0.00000000
   0.00000000   1.00000000   0.00000000   0.00000000   0.00000000
   0.00000000   0.00000000   1.00000000   0.00000000   0.00000000
   0.00000000   0.00000000   0.00000000   1.00000000   0.00000000
   0.00000000   0.00000000   0.00000000   0.00000000   1.00000000
* f-type functions
    2    2
          0.40000000
          0.04111400
   1.00000000   0.00000000
   0.00000000   1.00000000

/Ca.aug-pc-3.Jensen.21s15p7d2f.8s6p5d2f.
F. Jensen. J. Chem. Phys. 136 (2012) 114107. doi:10.1063/1.3690460
CALCIUM (21s,15p,7d,2f) -> [8s,6p,5d,2f]
    20.0   3
* s-type functions
   21    8
    2388000.00000000
     357660.00000000
      81408.00000000
      23062.00000000
       7524.90000000
       2717.20000000
       1060.00000000
        439.38000000
        190.71000000
         85.96900000
         39.67400000
         17.78800000
          8.27300000
          3.78640000
          1.57070000
          0.79202000
          0.35016000
          0.09620600
          0.04969800
          0.02184000
          0.00882200
   1.30960e-5  -2.62690e-6   7.12530e-7   4.43100e-7   0.00000000   0.00000000   0.00000000   0.00000000
   0.00010179  -2.04460e-5   5.53350e-6   3.44260e-6   0.00000000   0.00000000   0.00000000   0.00000000
   0.00053508  -0.00010733   2.91430e-5   0.00001812   0.00000000   0.00000000   0.00000000   0.00000000
   0.00225510  -0.00045403   0.00012277   7.63970e-5   0.00000000   0.00000000   0.00000000   0.00000000
   0.00816240  -0.00164470   0.00044734   0.00027809   0.00000000   0.00000000   0.00000000   0.00000000
   0.02611800  -0.00533620   0.00144320   0.00089844   0.00000000   0.00000000   0.00000000   0.00000000
   0.07417700  -0.01545900   0.00422590   0.00262750   0.00000000   0.00000000   0.00000000   0.00000000
   0.18210000  -0.04035800   0.01098700   0.00684860   0.00000000   0.00000000   0.00000000   0.00000000
   0.36274000  -0.09003800   0.02514800   0.01566200   0.00000000   0.00000000   0.00000000   0.00000000
   0.50000000  -0.15816000   0.04454100   0.02792300   0.00000000   0.00000000   0.00000000   0.00000000
   0.36832000  -0.16839000   0.05187500   0.03252900   0.00000000   0.00000000   0.00000000   0.00000000
   0.07959000   0.06171300  -0.02391900  -0.01488500   0.00000000   0.00000000   0.00000000   0.00000000
  -0.00364850   0.50000000  -0.20796000  -0.13748000   0.00000000   0.00000000   0.00000000   0.00000000
   0.00214490   0.48037000  -0.31365000  -0.21782000   0.00000000   0.00000000   0.00000000   0.00000000
  -0.00122100   0.08637300   0.08731900   0.06725800   0.00000000   0.00000000   0.00000000   0.00000000
   0.00075012  -0.01064300   0.50000000   0.50000000   0.00000000   0.00000000   0.00000000   0.00000000
  -0.00028452   0.00296630   0.31216000   0.49117000   0.00000000   0.00000000   0.00000000   0.00000000
   0.00000000   0.00000000   0.00000000   0.00000000   1.00000000   0.00000000   0.00000000   0.00000000
   0.00000000   0.00000000   0.00000000   0.00000000   0.00000000   1.00000000   0.00000000   0.00000000
   0.00000000   0.00000000   0.00000000   0.00000000   0.00000000   0.00000000   1.00000000   0.00000000
   0.00000000   0.00000000   0.00000000   0.00000000   0.00000000   0.00000000   0.00000000   1.00000000
* p-type functions
   15    6
       6241.70000000
       1478.60000000
        479.55000000
        181.48000000
         77.01700000
         35.04500000
         16.72100000
          8.21450000
          4.02000000
          1.93620000
          0.91987000
          0.42266000
          0.18262000
          0.05230000
          0.01416600
   0.00013190  -3.53320e-5   0.00000000   0.00000000   0.00000000   0.00000000
   0.00116670  -0.00030823   0.00000000   0.00000000   0.00000000   0.00000000
   0.00661170  -0.00177970   0.00000000   0.00000000   0.00000000   0.00000000
   0.02855600  -0.00763410   0.00000000   0.00000000   0.00000000   0.00000000
   0.09026200  -0.02497200   0.00000000   0.00000000   0.00000000   0.00000000
   0.22623000  -0.06327300   0.00000000   0.00000000   0.00000000   0.00000000
   0.40369000  -0.12233000   0.00000000   0.00000000   0.00000000   0.00000000
   0.50000000  -0.14872000   0.00000000   0.00000000   0.00000000   0.00000000
   0.34119000  -0.07517400   0.00000000   0.00000000   0.00000000   0.00000000
   0.08411500   0.24257000   0.00000000   0.00000000   0.00000000   0.00000000
   0.00079130   0.50000000   0.00000000   0.00000000   0.00000000   0.00000000
   0.00000000   0.00000000   1.00000000   0.00000000   0.00000000   0.00000000
   0.00000000   0.00000000   0.00000000   1.00000000   0.00000000   0.00000000
   0.00000000   0.00000000   0.00000000   0.00000000   1.00000000   0.00000000
   0.00000000   0.00000000   0.00000000   0.00000000   0.00000000   1.00000000
* d-type functions
    7    5
         20.26000000
          5.59000000
          1.79500000
          0.59800000
          0.17980000
          0.05100000
          0.01368900
   0.03315100   0.00000000   0.00000000   0.00000000   0.00000000
   0.17577000   0.00000000   0.00000000   0.00000000   0.00000000
   0.50000000   0.00000000   0.00000000   0.00000000   0.00000000
   0.00000000   1.00000000   0.00000000   0.00000000   0.00000000
   0.00000000   0.00000000   1.00000000   0.00000000   0.00000000
   0.00000000   0.00000000   0.00000000   1.00000000   0.00000000
   0.00000000   0.00000000   0.00000000   0.00000000   1.00000000
* f-type functions
    2    2
          0.50000000
          0.05666600
   1.00000000   0.00000000
   0.00000000   1.00000000

/Sc.aug-pc-3.Jensen.21s15p11d4f3g2h.8s6p5d4f3g2h.
F. Jensen. J. Chem. Phys. 138 (2013) 014107. doi:10.1063/1.4773017
SCANDIUM (21s,15p,11d,4f,3g,2h) -> [8s,6p,5d,4f,3g,2h]
    21.0   5
* s-type functions
   21    8
    2745500.00000000
     411070.00000000
      93538.00000000
      26494.00000000
       8642.90000000
       3120.00000000
       1216.80000000
        504.24000000
        218.88000000
         98.76900000
         45.69600000
         20.81400000
          9.63740000
          4.43390000
          1.89140000
          0.94923000
          0.41858000
          0.12270000
          0.06083100
          0.02551100
          0.00987100
   1.25170e-5  -2.53470e-6   6.91330e-7   4.18590e-7   0.00000000   0.00000000   0.00000000   0.00000000
   9.73460e-5  -1.97330e-5   5.37060e-6   3.25250e-6   0.00000000   0.00000000   0.00000000   0.00000000
   0.00051188  -0.00010366   2.83020e-5   1.71350e-5   0.00000000   0.00000000   0.00000000   0.00000000
   0.00215820  -0.00043842   0.00011922   7.22120e-5   0.00000000   0.00000000   0.00000000   0.00000000
   0.00781660  -0.00159010   0.00043484   0.00026325   0.00000000   0.00000000   0.00000000   0.00000000
   0.02505000  -0.00516060   0.00140370   0.00085046   0.00000000   0.00000000   0.00000000   0.00000000
   0.07134500  -0.01499700   0.00412160   0.00249590   0.00000000   0.00000000   0.00000000   0.00000000
   0.17623000  -0.03926900   0.01075100   0.00652170   0.00000000   0.00000000   0.00000000   0.00000000
   0.35485000  -0.08840500   0.02481800   0.01505800   0.00000000   0.00000000   0.00000000   0.00000000
   0.50000000  -0.15718000   0.04452300   0.02715000   0.00000000   0.00000000   0.00000000   0.00000000
   0.38368000  -0.17507000   0.05409300   0.03309600   0.00000000   0.00000000   0.00000000   0.00000000
   0.09119600   0.04122100  -0.01690400  -0.01029800   0.00000000   0.00000000   0.00000000   0.00000000
  -0.00250670   0.49010000  -0.20400000  -0.13093000   0.00000000   0.00000000   0.00000000   0.00000000
   0.00200470   0.50000000  -0.32403000  -0.21961000   0.00000000   0.00000000   0.00000000   0.00000000
[...]
         72.74600000
         31.78000000
         14.54300000
          6.95590000
          3.30370000
          1.53430000
          0.68172000
          0.27389000
          0.11000000
          0.04089400
   0.00063542   0.00000000   0.00000000   0.00000000   0.00000000
   0.00569570   0.00000000   0.00000000   0.00000000   0.00000000
   0.02921200   0.00000000   0.00000000   0.00000000   0.00000000
   0.10528000   0.00000000   0.00000000   0.00000000   0.00000000
   0.26025000   0.00000000   0.00000000   0.00000000   0.00000000
   0.43163000   0.00000000   0.00000000   0.00000000   0.00000000
   0.50000000   0.00000000   0.00000000   0.00000000   0.00000000
   0.40597000   0.00000000   0.00000000   0.00000000   0.00000000
   0.00000000   1.00000000   0.00000000   0.00000000   0.00000000
   0.00000000   0.00000000   1.00000000   0.00000000   0.00000000
   0.00000000   0.00000000   0.00000000   1.00000000   0.00000000
   0.00000000   0.00000000   0.00000000   0.00000000   1.00000000
* f-type functions
    3    3
          1.41000000
          0.35000000
          0.07024300
   1.00000000   0.00000000   0.00000000
   0.00000000   1.00000000   0.00000000
   0.00000000   0.00000000   1.00000000
* g-type functions
    2    2
          0.53000000
          0.08780400
   1.00000000   0.00000000
   0.00000000   1.00000000

/Se.aug-pc-3.Jensen.21s17p12d3f2g.8s7p5d3f2g.
F. Jensen. J. Chem. Phys. 136 (2012) 114107. doi:10.1063/1.3690460
SELENIUM (21s,17p,12d,3f,2g) -> [8s,7p,5d,3f,2g]
    34.0   4
* s-type functions
   21    8
    9852000.00000000
    1475400.00000000
     335890.00000000
      95154.00000000
      31046.00000000
      11207.00000000
       4369.90000000
       1811.40000000
        789.12000000
        359.08000000
        169.04000000
         81.66600000
         36.10800000
         17.38400000
          8.43340000
          3.79040000
          1.69910000
          0.58236000
          0.28424000
          0.11374000
          0.04214300
   9.25970e-6  -1.60380e-6   5.60530e-7   2.70060e-7   0.00000000   0.00000000   0.00000000   0.00000000
   7.19790e-5  -1.24590e-5   4.34860e-6   2.09570e-6   0.00000000   0.00000000   0.00000000   0.00000000
   0.00037831  -0.00006557   2.29320e-5   1.10470e-5   0.00000000   0.00000000   0.00000000   0.00000000
   0.00159650  -0.00027662   9.65030e-5   4.65140e-5   0.00000000   0.00000000   0.00000000   0.00000000
   0.00579350  -0.00100830   0.00035305   0.00017007   0.00000000   0.00000000   0.00000000   0.00000000
   0.01869800  -0.00327210   0.00114220   0.00055070   0.00000000   0.00000000   0.00000000   0.00000000
   0.05413500  -0.00967250   0.00340060   0.00163860   0.00000000   0.00000000   0.00000000   0.00000000
   0.13886000  -0.02577900   0.00905780   0.00437280   0.00000000   0.00000000   0.00000000   0.00000000
   0.29976000  -0.06122900   0.02192900   0.01058900   0.00000000   0.00000000   0.00000000   0.00000000
   0.49106000  -0.11899000   0.04321000   0.02097600   0.00000000   0.00000000   0.00000000   0.00000000
   0.50000000  -0.17078000   0.06618500   0.03225400   0.00000000   0.00000000   0.00000000   0.00000000
   0.22239000  -0.07538700   0.02974900   0.01485200   0.00000000   0.00000000   0.00000000   0.00000000
   0.01932900   0.31422000  -0.16324000  -0.08380500   0.00000000   0.00000000   0.00000000   0.00000000
  -0.00187430   0.50000000  -0.38257000  -0.20556000   0.00000000   0.00000000   0.00000000   0.00000000
   0.00068740   0.17888000  -0.08325600  -0.05023000   0.00000000   0.00000000   0.00000000   0.00000000
  -0.00028228   0.00545470   0.50000000   0.37858000   0.00000000   0.00000000   0.00000000   0.00000000
   0.00012122   0.00037009   0.42336000   0.50000000   0.00000000   0.00000000   0.00000000   0.00000000
   0.00000000   0.00000000   0.00000000   0.00000000   1.00000000   0.00000000   0.00000000   0.00000000
   0.00000000   0.00000000   0.00000000   0.00000000   0.00000000   1.00000000   0.00000000   0.00000000
   0.00000000   0.00000000   0.00000000   0.00000000   0.00000000   0.00000000   1.00000000   0.00000000
   0.00000000   0.00000000   0.00000000   0.00000000   0.00000000   0.00000000   0.00000000   1.00000000
* p-type functions
   17    7
      23660.00000000
       5599.20000000
       1816.20000000
        692.51000000
        295.34000000
        134.49000000
         64.33600000
         31.94100000
         16.12600000
          8.10970000
          3.91040000
          1.84700000
          0.81737000
          0.37000000
          0.15277000
          0.05899600
          0.02115000
   9.38540e-5  -2.78880e-5  -2.10060e-5   0.00000000   0.00000000   0.00000000   0.00000000
   0.00083450  -0.00024843  -0.00018689   0.00000000   0.00000000   0.00000000   0.00000000
   0.00480330  -0.00143500  -0.00108150   0.00000000   0.00000000   0.00000000   0.00000000
   0.02096500  -0.00632360  -0.00476450   0.00000000   0.00000000   0.00000000   0.00000000
   0.07111500  -0.02185400  -0.01652500   0.00000000   0.00000000   0.00000000   0.00000000
   0.19301000  -0.06152400  -0.04665600   0.00000000   0.00000000   0.00000000   0.00000000
   0.38320000  -0.12955000  -0.09910100   0.00000000   0.00000000   0.00000000   0.00000000
   0.50000000  -0.17590000  -0.13512000   0.00000000   0.00000000   0.00000000   0.00000000
   0.35399000  -0.07967600  -0.05605100   0.00000000   0.00000000   0.00000000   0.00000000
   0.09310300   0.24969000   0.23532000   0.00000000   0.00000000   0.00000000   0.00000000
   0.00294340   0.50000000   0.50000000   0.00000000   0.00000000   0.00000000   0.00000000
   0.00040621   0.36326000   0.36384000   0.00000000   0.00000000   0.00000000   0.00000000
  -0.00022436   0.07439700  -0.37730000   0.00000000   0.00000000   0.00000000   0.00000000
   0.00000000   0.00000000   0.00000000   1.00000000   0.00000000   0.00000000   0.00000000
   0.00000000   0.00000000   0.00000000   0.00000000   1.00000000   0.00000000   0.00000000
   0.00000000   0.00000000   0.00000000   0.00000000   0.00000000   1.00000000   0.00000000
   0.00000000   0.00000000   0.00000000   0.00000000   0.00000000   0.00000000   1.00000000
* d-type functions
   12    5
        745.11000000
        226.27000000
         88.19200000
         38.24900000
         17.59600000
          8.51250000
          4.11020000
          1.95480000
          0.89611000
          0.37932000
          0.15200000
          0.05639000
   0.00050094   0.00000000   0.00000000   0.00000000   0.00000000
   0.00454860   0.00000000   0.00000000   0.00000000   0.00000000
   0.02437400   0.00000000   0.00000000   0.00000000   0.00000000
   0.09256400   0.00000000   0.00000000   0.00000000   0.00000000
   0.23484000   0.00000000   0.00000000   0.00000000   0.00000000
   0.41168000   0.00000000   0.00000000   0.00000000   0.00000000
   0.50000000   0.00000000   0.00000000   0.00000000   0.00000000
   0.42224000   0.00000000   0.00000000   0.00000000   0.00000000
   0.00000000   1.00000000   0.00000000   0.00000000   0.00000000
   0.00000000   0.00000000   1.00000000   0.00000000   0.00000000
   0.00000000   0.00000000   0.00000000   1.00000000   0.00000000
   0.00000000   0.00000000   0.00000000   0.00000000   1.00000000
* f-type functions
    3    3
          1.55000000
          0.39000000
          0.08460000
   1.00000000   0.00000000   0.00000000
   0.00000000   1.00000000   0.00000000
   0.00000000   0.00000000   1.00000000
* g-type functions
    2    2
          0.58000000
          0.10575000
   1.00000000   0.00000000
   0.00000000   1.00000000

/Br.aug-pc-3.Jensen.21s17p12d3f2g.8s7p5d3f2g.
F. Jensen. J. Chem. Phys. 136 (2012) 114107. doi:10.1063/1.3690460
BROMINE (21s,17p,12d,3f,2g) -> [8s,7p,5d,3f,2g]
    35.0   4
* s-type functions
   21    8
   10707000.00000000
    1602000.00000000
     364520.00000000
     103250.00000000
      33687.00000000
      12161.00000000
       4741.80000000
       1965.60000000
        856.64000000
        390.00000000
        183.71000000
         88.78600000
         39.18200000
         18.95200000
          9.25670000
          4.14520000
          1.87550000
          0.65038000
          0.32073000
          0.13005000
          0.04877600
   8.90260e-6  -1.55480e-6   5.52470e-7   2.59940e-7   0.00000000   0.00000000   0.00000000   0.00000000
   6.92870e-5  -1.20930e-5   4.29110e-6   2.01960e-6   0.00000000   0.00000000   0.00000000   0.00000000
   0.00036432  -0.00006367   2.26390e-5   1.06510e-5   0.00000000   0.00000000   0.00000000   0.00000000
   0.00153770  -0.00026862   9.52750e-5   4.48470e-5   0.00000000   0.00000000   0.00000000   0.00000000
   0.00557940  -0.00097912   0.00034854   0.00016396   0.00000000   0.00000000   0.00000000   0.00000000
   0.01801500  -0.00317770   0.00112770   0.00053101   0.00000000   0.00000000   0.00000000   0.00000000
   0.05221800  -0.00940230   0.00336070   0.00158140   0.00000000   0.00000000   0.00000000   0.00000000
   0.13421000  -0.02508500   0.00895970   0.00422440   0.00000000   0.00000000   0.00000000   0.00000000
   0.29097000  -0.05973200   0.02174400   0.01025400   0.00000000   0.00000000   0.00000000   0.00000000
   0.48147000  -0.11682000   0.04310600   0.02043900   0.00000000   0.00000000   0.00000000   0.00000000
   0.50000000  -0.17012000   0.06693700   0.03186300   0.00000000   0.00000000   0.00000000   0.00000000
   0.23127000  -0.08234400   0.03318700   0.01618000   0.00000000   0.00000000   0.00000000   0.00000000
   0.02177300   0.30102000  -0.15833000  -0.07953100   0.00000000   0.00000000   0.00000000   0.00000000
  -0.00231850   0.50000000  -0.38589000  -0.20291000   0.00000000   0.00000000   0.00000000   0.00000000
   0.00089252   0.18933000  -0.10130000  -0.06012700   0.00000000   0.00000000   0.00000000   0.00000000
  -0.00037530   0.00723050   0.50000000   0.37582000   0.00000000   0.00000000   0.00000000   0.00000000
   0.00016629   8.97330e-5   0.43477000   0.50000000   0.00000000   0.00000000   0.00000000   0.00000000
   0.00000000   0.00000000   0.00000000   0.00000000   1.00000000   0.00000000   0.00000000   0.00000000
   0.00000000   0.00000000   0.00000000   0.00000000   0.00000000   1.00000000   0.00000000   0.00000000
   0.00000000   0.00000000   0.00000000   0.00000000   0.00000000   0.00000000   1.00000000   0.00000000
   0.00000000   0.00000000   0.00000000   0.00000000   0.00000000   0.00000000   0.00000000   1.00000000
* p-type functions
   17    7
      25337.00000000
       6001.20000000
       1947.60000000
        742.95000000
        316.79000000
        144.24000000
         69.00400000
         34.27100000
         17.32200000
          8.72720000
          4.22220000
          2.00300000
          0.87968000
          0.40713000
          0.17139000
          0.06785100
          0.02489000
   9.25640e-5  -2.75150e-5  -2.03110e-5   0.00000000   0.00000000   0.00000000   0.00000000
   0.00082209  -0.00024492  -0.00018066   0.00000000   0.00000000   0.00000000   0.00000000
   0.00473030  -0.00141380  -0.00104430   0.00000000   0.00000000   0.00000000   0.00000000
   0.02066100  -0.00623700  -0.00460820   0.00000000   0.00000000   0.00000000   0.00000000
   0.07032800  -0.02162200  -0.01602600   0.00000000   0.00000000   0.00000000   0.00000000
   0.19149000  -0.06110400  -0.04545800   0.00000000   0.00000000   0.00000000   0.00000000
   0.38191000  -0.12921000  -0.09694000   0.00000000   0.00000000   0.00000000   0.00000000
   0.50000000  -0.17635000  -0.13309000   0.00000000   0.00000000   0.00000000   0.00000000
   0.35510000  -0.08011200  -0.05478700   0.00000000   0.00000000   0.00000000   0.00000000
   0.09392300   0.24803000   0.23139000   0.00000000   0.00000000   0.00000000   0.00000000
   0.00302540   0.50000000   0.50000000   0.00000000   0.00000000   0.00000000   0.00000000
   0.00040529   0.35622000   0.34178000   0.00000000   0.00000000   0.00000000   0.00000000
  -0.00022787   0.06803700  -0.44475000   0.00000000   0.00000000   0.00000000   0.00000000
   0.00000000   0.00000000   0.00000000   1.00000000   0.00000000   0.00000000   0.00000000
   0.00000000   0.00000000   0.00000000   0.00000000   1.00000000   0.00000000   0.00000000
   0.00000000   0.00000000   0.00000000   0.00000000   0.00000000   1.00000000   0.00000000
   0.00000000   0.00000000   0.00000000   0.00000000   0.00000000   0.00000000   1.00000000
* d-type functions
   12    5
        807.10000000
        245.20000000
         95.57400000
         41.51500000
         19.14700000
          9.28140000
          4.49510000
          2.14950000
          0.99179000
          0.41734000
          0.16700000
          0.06187300
   0.00049253   0.00000000   0.00000000   0.00000000   0.00000000
   0.00448930   0.00000000   0.00000000   0.00000000   0.00000000
   0.02417700   0.00000000   0.00000000   0.00000000   0.00000000
   0.09205400   0.00000000   0.00000000   0.00000000   0.00000000
   0.23453000   0.00000000   0.00000000   0.00000000   0.00000000
   0.41231000   0.00000000   0.00000000   0.00000000   0.00000000
   0.50000000   0.00000000   0.00000000   0.00000000   0.00000000
   0.40986000   0.00000000   0.00000000   0.00000000   0.00000000
   0.00000000   1.00000000   0.00000000   0.00000000   0.00000000
   0.00000000   0.00000000   1.00000000   0.00000000   0.00000000
   0.00000000   0.00000000   0.00000000   1.00000000   0.00000000
   0.00000000   0.00000000   0.00000000   0.00000000   1.00000000
* f-type functions
    3    3
          1.70000000
          0.43000000
          0.09956100
   1.00000000   0.00000000   0.00000000
   0.00000000   1.00000000   0.00000000
   0.00000000   0.00000000   1.00000000
* g-type functions
    2    2
          0.64000000
          0.12445000
   1.00000000   0.00000000
   0.00000000   1.00000000

/Kr.aug-pc-3.Jensen.21s17p12d3f2g.8s7p5d3f2g.
F. Jensen. J. Chem. Phys. 136 (2012) 114107. doi:10.1063/1.3690460
KRYPTON (21s,17p,12d,3f,2g) -> [8s,7p,5d,3f,2g]
    36.0   4
* s-type functions
   21    8
   11581000.00000000
    1734200.00000000
     394660.00000000
     111790.00000000
      36470.00000000
      13166.00000000
       5135.50000000
       2129.80000000
        928.66000000
        423.01000000
        199.35000000
         96.32500000
         42.45100000
         20.62600000
         10.13000000
          4.52340000
          2.06350000
          0.72508000
          0.35825000
          0.14646000
          0.05535100
   8.58880e-6  -1.51260e-6   5.46370e-7   2.50630e-7   0.00000000   0.00000000   0.00000000   0.00000000
   6.67910e-5  -1.17550e-5   4.24030e-6   1.94550e-6   0.00000000   0.00000000   0.00000000   0.00000000
   0.00035120  -6.18940e-5   2.23710e-5   1.02610e-5   0.00000000   0.00000000   0.00000000   0.00000000
   0.00148240  -0.00026113   9.41510e-5   4.32040e-5   0.00000000   0.00000000   0.00000000   0.00000000
   0.00538060  -0.00095213   0.00034454   0.00015802   0.00000000   0.00000000   0.00000000   0.00000000
   0.01737300  -0.00308950   0.00111450   0.00051159   0.00000000   0.00000000   0.00000000   0.00000000
   0.05037300  -0.00914120   0.00332120   0.00152370   0.00000000   0.00000000   0.00000000   0.00000000
   0.12970000  -0.02440800   0.00886100   0.00407270   0.00000000   0.00000000   0.00000000   0.00000000
   0.28240000  -0.05826600   0.02155500   0.00991130   0.00000000   0.00000000   0.00000000   0.00000000
   0.47197000  -0.11469000   0.04299600   0.01987400   0.00000000   0.00000000   0.00000000   0.00000000
   0.50000000  -0.16945000   0.06766900   0.03142200   0.00000000   0.00000000   0.00000000   0.00000000
   0.24026000  -0.08918600   0.03668000   0.01740900   0.00000000   0.00000000   0.00000000   0.00000000
   0.02429600   0.28769000  -0.15319000  -0.07509200   0.00000000   0.00000000   0.00000000   0.00000000
  -0.00273560   0.50000000  -0.38895000  -0.19989000   0.00000000   0.00000000   0.00000000   0.00000000
   0.00108130   0.20022000  -0.12002000  -0.06951100   0.00000000   0.00000000   0.00000000   0.00000000
  -0.00045973   0.00905890   0.50000000   0.37128000   0.00000000   0.00000000   0.00000000   0.00000000
   0.00020827  -0.00018586   0.44661000   0.50000000   0.00000000   0.00000000   0.00000000   0.00000000
   0.00000000   0.00000000   0.00000000   0.00000000   1.00000000   0.00000000   0.00000000   0.00000000
   0.00000000   0.00000000   0.00000000   0.00000000   0.00000000   1.00000000   0.00000000   0.00000000
   0.00000000   0.00000000   0.00000000   0.00000000   0.00000000   0.00000000   1.00000000   0.00000000
   0.00000000   0.00000000   0.00000000   0.00000000   0.00000000   0.00000000   0.00000000   1.00000000
* p-type functions
   17    7
      27327.00000000
       6469.40000000
       2099.10000000
        800.82000000
        341.53000000
        155.55000000
         74.46900000
         37.02200000
         18.74100000
          9.46850000
          4.60220000
          2.19640000
          0.96661000
          0.45189000
          0.19315000
          0.07791300
          0.02908200
   9.00940e-5  -2.68650e-5  -1.95590e-5   0.00000000   0.00000000   0.00000000   0.00000000
   0.00080081  -0.00023934  -0.00017412   0.00000000   0.00000000   0.00000000   0.00000000
   0.00461340  -0.00138310  -0.00100760   0.00000000   0.00000000   0.00000000   0.00000000
   0.02017200  -0.00610830  -0.00445120   0.00000000   0.00000000   0.00000000   0.00000000
   0.06889400  -0.02124400  -0.01553300   0.00000000   0.00000000   0.00000000   0.00000000
   0.18836000  -0.06028500  -0.04424600   0.00000000   0.00000000   0.00000000   0.00000000
   0.37826000  -0.12835000  -0.09504400   0.00000000   0.00000000   0.00000000   0.00000000
   0.50000000  -0.17719000  -0.13204000   0.00000000   0.00000000   0.00000000   0.00000000
   0.36013000  -0.08402100  -0.05701500   0.00000000   0.00000000   0.00000000   0.00000000
   0.09766100   0.24184000   0.22516000   0.00000000   0.00000000   0.00000000   0.00000000
   0.00342000   0.50000000   0.50000000   0.00000000   0.00000000   0.00000000   0.00000000
   0.00040170   0.35521000   0.33291000   0.00000000   0.00000000   0.00000000   0.00000000
  -0.00023063   0.06606300  -0.47942000   0.00000000   0.00000000   0.00000000   0.00000000
   0.00000000   0.00000000   0.00000000   1.00000000   0.00000000   0.00000000   0.00000000
   0.00000000   0.00000000   0.00000000   0.00000000   1.00000000   0.00000000   0.00000000
   0.00000000   0.00000000   0.00000000   0.00000000   0.00000000   1.00000000   0.00000000
   0.00000000   0.00000000   0.00000000   0.00000000   0.00000000   0.00000000   1.00000000
* d-type functions
   12    5
       1022.00000000
        310.79000000
        120.34000000
         52.10400000
         24.48700000
         12.11500000
          6.04080000
          2.99820000
          1.43910000
          0.64266000
          0.25700000
          0.09516300
   0.00036153   0.00000000   0.00000000   0.00000000   0.00000000
   0.00337640   0.00000000   0.00000000   0.00000000   0.00000000
   0.01921400   0.00000000   0.00000000   0.00000000   0.00000000
   0.07621400   0.00000000   0.00000000   0.00000000   0.00000000
   0.19895000   0.00000000   0.00000000   0.00000000   0.00000000
   0.37981000   0.00000000   0.00000000   0.00000000   0.00000000
   0.50000000   0.00000000   0.00000000   0.00000000   0.00000000
   0.46194000   0.00000000   0.00000000   0.00000000   0.00000000
   0.00000000   1.00000000   0.00000000   0.00000000   0.00000000
   0.00000000   0.00000000   1.00000000   0.00000000   0.00000000
   0.00000000   0.00000000   0.00000000   1.00000000   0.00000000
   0.00000000   0.00000000   0.00000000   0.00000000   1.00000000
* f-type functions
    3    3
          1.87000000
          0.47000000
          0.11633000
   1.00000000   0.00000000   0.00000000
   0.00000000   1.00000000   0.00000000
   0.00000000   0.00000000   1.00000000
* g-type functions
    2    2
          0.70000000
          0.14541000
   1.00000000   0.00000000
   0.00000000   1.00000000
