************************************************************************
* This file is part of OpenMolcas.                                     *
*                                                                      *
* OpenMolcas is free software; you can redistribute it and/or modify   *
* it under the terms of the GNU Lesser General Public License, v. 2.1. *
* OpenMolcas is distributed in the hope that it will be useful, but it *
* is provided "as is" and without any express or implied warranties.   *
* For more details see the full text of the license in the file        *
* LICENSE or in <http://www.gnu.org/licenses/>.                        *
************************************************************************
*  aug-cc-pV6Z  EMSL  Basis Set Exchange Library   5/17/17 4:08 AM
*
* Elements                             References
* --------                             ---------
* H    :  K.A. Peterson, D.E. Woon (unpublished)
* B - O:  A.K. Wilson, T. van Mourik and T.H. Dunning, Jr. J. Mol. Struct.
*         (THEOCHEM) 388, 339 (1997).
* 
* 
********************************************************************************
!
! BASIS SET = aug-cc-pV6Z

/He.aug-cc-pV6Z.Dunning.11s6p5d4f3g2h.7s6p5d4f3g2h.
(blank line)
HELIUM       (11s,6p,5d,4f,3g,2h) -> [7s,6p,5d,4f,3g,2h]
          2.   5
* S-type functions
    11    7
           4785.0000000        
            717.0000000        
            163.2000000        
             46.2600000        
             15.1000000        
              5.4370000        
              2.0880000        
              0.8297000        
              0.3366000        
              0.1369000        
              0.0447300        
      0.0000006              0.0000000              0.0000000              0.0000000              0.0000000              0.0000000              0.0000000        
      0.0000047              0.0000000              0.0000000              0.0000000              0.0000000              0.0000000              0.0000000        
      0.0000244              0.0000000              0.0000000              0.0000000              0.0000000              0.0000000              0.0000000        
      0.0001012              0.0000000              0.0000000              0.0000000              0.0000000              0.0000000              0.0000000        
      0.0003486              0.0000000              0.0000000              0.0000000              0.0000000              0.0000000              0.0000000        
      0.0009841              1.0000000              0.0000000              0.0000000              0.0000000              0.0000000              0.0000000        
      0.0021631              0.0000000              1.0000000              0.0000000              0.0000000              0.0000000              0.0000000        
      0.0034905              0.0000000              0.0000000              1.0000000              0.0000000              0.0000000              0.0000000        
      0.0034660              0.0000000              0.0000000              0.0000000              1.0000000              0.0000000              0.0000000        
      0.0011519              0.0000000              0.0000000              0.0000000              0.0000000              1.0000000              0.0000000        
      0.0000000              0.0000000              0.0000000              0.0000000              0.0000000              0.0000000              1.0000000        
* P-type functions
    6    6
              0.3870000        
              0.9840000        
              2.4980000        
              6.3420000        
             16.1040000        
              0.1280000        
      1.0000000              0.0000000              0.0000000              0.0000000              0.0000000              0.0000000        
      0.0000000              1.0000000              0.0000000              0.0000000              0.0000000              0.0000000        
      0.0000000              0.0000000              1.0000000              0.0000000              0.0000000              0.0000000        
      0.0000000              0.0000000              0.0000000              1.0000000              0.0000000              0.0000000        
      0.0000000              0.0000000              0.0000000              0.0000000              1.0000000              0.0000000        
      0.0000000              0.0000000              0.0000000              0.0000000              0.0000000              1.0000000        
* D-type functions
    5    5
              0.7470000        
              1.9100000        
              4.8860000        
             12.4980000        
              0.2410000        
      1.0000000              0.0000000              0.0000000              0.0000000              0.0000000        
      0.0000000              1.0000000              0.0000000              0.0000000              0.0000000        
      0.0000000              0.0000000              1.0000000              0.0000000              0.0000000        
      0.0000000              0.0000000              0.0000000              1.0000000              0.0000000        
      0.0000000              0.0000000              0.0000000              0.0000000              1.0000000        
* F-type functions
    4    4
              1.2920000        
              3.4620000        
              9.2760000        
              0.4070000        
      1.0000000              0.0000000              0.0000000              0.0000000        
      0.0000000              1.0000000              0.0000000              0.0000000        
      0.0000000              0.0000000              1.0000000              0.0000000        
      0.0000000              0.0000000              0.0000000              1.0000000        
* G-type functions
    3    3
              2.2360000        
              6.5860000        
              0.6860000        
      1.0000000              0.0000000              0.0000000        
      0.0000000              1.0000000              0.0000000        
      0.0000000              0.0000000              1.0000000        
* H-type functions
    2    2
              4.1590000        
              1.0160000        
      1.0000000              0.0000000        
      0.0000000              1.0000000        
