************************************************************************
* This file is part of OpenMolcas.                                     *
*                                                                      *
* OpenMolcas is free software; you can redistribute it and/or modify   *
* it under the terms of the GNU Lesser General Public License, v. 2.1. *
* OpenMolcas is distributed in the hope that it will be useful, but it *
* is provided "as is" and without any express or implied warranties.   *
* For more details see the full text of the license in the file        *
* LICENSE or in <http://www.gnu.org/licenses/>.                        *
************************************************************************

#Hamiltonian NRH
#Nucleus UNK
#Contraction SEG
#AllElectron AE_

************************************************************************
* This file has been generated from Basis Set Exchange data:           *
*   https://www.basissetexchange.org                                   *
* Version: 0  (Data from the Original Basis Set Exchange)              *
************************************************************************

/H.aug-pc-2.Jensen.7s3p2d.4s3p2d.
F. Jensen. J. Chem. Phys. 117 (2002) 9234-9240. doi:10.1063/1.1515484
HYDROGEN (7s,3p,2d) -> [4s,3p,2d]
     1.0   2
* s-type functions
    7    4
         75.42300000
         11.35000000
          2.59930000
          0.73513000
          0.23167000
          0.07414700
          0.02233400
   0.00240650   0.00000000   0.00000000   0.00000000
   0.01848700   0.00000000   0.00000000   0.00000000
   0.08974200   0.00000000   0.00000000   0.00000000
   0.28111000   0.00000000   0.00000000   0.00000000
   0.00000000   1.00000000   0.00000000   0.00000000
   0.00000000   0.00000000   1.00000000   0.00000000
   0.00000000   0.00000000   0.00000000   1.00000000
* p-type functions
    3    3
          1.60000000
          0.45000000
          0.06700100
   1.00000000   0.00000000   0.00000000
   0.00000000   1.00000000   0.00000000
   0.00000000   0.00000000   1.00000000
* d-type functions
    2    2
          1.25000000
          0.08933400
   1.00000000   0.00000000
   0.00000000   1.00000000

/He.aug-pc-2.Jensen.7s3p2d.4s3p2d.
F. Jensen. J. Phys. Chem. A 111 (2007) 11198-11204. doi:10.1021/jp068677h
HELIUM (7s,3p,2d) -> [4s,3p,2d]
     2.0   2
* s-type functions
    7    4
        221.77000000
         33.37500000
          7.61140000
          2.10890000
          0.62878000
          0.18469000
          0.05123000
   0.00144090   0.00000000   0.00000000   0.00000000
   0.01089400   0.00000000   0.00000000   0.00000000
   0.05018900   0.00000000   0.00000000   0.00000000
   0.14290000   0.00000000   0.00000000   0.00000000
   0.00000000   1.00000000   0.00000000   0.00000000
   0.00000000   0.00000000   1.00000000   0.00000000
   0.00000000   0.00000000   0.00000000   1.00000000
* p-type functions
    3    3
          2.40000000
          0.68000000
          0.15370000
   1.00000000   0.00000000   0.00000000
   0.00000000   1.00000000   0.00000000
   0.00000000   0.00000000   1.00000000
* d-type functions
    2    2
          1.80000000
          0.20490000
   1.00000000   0.00000000
   0.00000000   1.00000000

/Li.aug-pc-2.Jensen.11s5p2d.5s3p2d.
F. Jensen. J. Phys. Chem. A 111 (2007) 11198-11204. doi:10.1021/jp068677h
LITHIUM (11s,5p,2d) -> [5s,3p,2d]
     3.0   2
* s-type functions
   11    5
       1502.50000000
        225.51000000
         51.37500000
         14.54700000
          4.66450000
          1.60080000
          0.55262000
          0.10366000
          0.04744200
          0.01979000
          0.00762000
   0.00076137   0.00000000   0.00000000   0.00000000   0.00000000
   0.00587120   2.10450e-5   0.00000000   0.00000000   0.00000000
   0.02974300  -0.00012177   0.00000000   0.00000000   0.00000000
   0.10959000  -0.00010088   0.00000000   0.00000000   0.00000000
   0.28000000  -0.00844260   0.00000000   0.00000000   0.00000000
   0.44163000  -0.02439400   0.00000000   0.00000000   0.00000000
   0.29922000  -0.09071800   0.00000000   0.00000000   0.00000000
   0.00000000   0.30659000   0.00000000   0.00000000   0.00000000
   0.00000000   0.00000000   1.00000000   0.00000000   0.00000000
   0.00000000   0.00000000   0.00000000   1.00000000   0.00000000
   0.00000000   0.00000000   0.00000000   0.00000000   1.00000000
* p-type functions
    5    3
          5.30000000
          1.15000000
          0.29000000
          0.09000000
          0.02286000
   0.00554503   0.00000000   0.00000000
   0.05509120   0.00000000   0.00000000
   0.08756150   0.00000000   0.00000000
   0.00000000   1.00000000   0.00000000
   0.00000000   0.00000000   1.00000000
* d-type functions
    2    2
          0.26000000
          0.03048000
   1.00000000   0.00000000
   0.00000000   1.00000000

/Be.aug-pc-2.Jensen.11s5p2d.5s3p2d.
F. Jensen. J. Phys. Chem. A 111 (2007) 11198-11204. doi:10.1021/jp068677h
BERYLLIUM (11s,5p,2d) -> [5s,3p,2d]
     4.0   2
* s-type functions
   11    5
       3067.30000000
        460.24000000
        104.80000000
         29.65700000
          9.53650000
          3.31060000
          1.18040000
          0.26871000
          0.11774000
          0.04468500
          0.01576000
   0.00032683   0.00000000   0.00000000   0.00000000   0.00000000
   0.00252340   1.38940e-6   0.00000000   0.00000000   0.00000000
   0.01286700  -3.64310e-5   0.00000000   0.00000000   0.00000000
   0.04860700  -0.00033196   0.00000000   0.00000000   0.00000000
   0.13111000  -0.00366180   0.00000000   0.00000000   0.00000000
   0.22124000  -0.01754000   0.00000000   0.00000000   0.00000000
   0.16345000  -0.04090500   0.00000000   0.00000000   0.00000000
   0.00000000   0.11357000   0.00000000   0.00000000   0.00000000
   0.00000000   0.00000000   1.00000000   0.00000000   0.00000000
   0.00000000   0.00000000   0.00000000   1.00000000   0.00000000
   0.00000000   0.00000000   0.00000000   0.00000000   1.00000000
* p-type functions
    5    3
          8.24000000
          1.79000000
          0.45000000
          0.14000000
          0.04728000
   0.01114710   0.00000000   0.00000000
   0.08054940   0.00000000   0.00000000
   0.25574400   0.00000000   0.00000000
   0.00000000   1.00000000   0.00000000
   0.00000000   0.00000000   1.00000000
* d-type functions
    2    2
          0.39000000
          0.06304000
   1.00000000   0.00000000
   0.00000000   1.00000000

/B.aug-pc-2.Jensen.11s7p3d2f.5s4p3d2f.
F. Jensen. J. Phys. Chem. A 111 (2007) 11198-11204. doi:10.1021/jp068677h
BORON (11s,7p,3d,2f) -> [5s,4p,3d,2f]
     5.0   3
* s-type functions
   11    5
       5220.40000000
        783.19000000
        178.31000000
         50.46900000
         16.28500000
          5.68850000
          2.04950000
          0.51473000
          0.21556000
          0.07745700
          0.02597000
   0.00059530   0.00000000   0.00000000   0.00000000   0.00000000
   0.00459910   1.65880e-6   0.00000000   0.00000000   0.00000000
   0.02353000  -6.85210e-5   0.00000000   0.00000000   0.00000000
   0.09001500  -0.00068751   0.00000000   0.00000000   0.00000000
   0.24988000  -0.00736900   0.00000000   0.00000000   0.00000000
   0.44237000  -0.03709800   0.00000000   0.00000000   0.00000000
   0.34536000  -0.08698600   0.00000000   0.00000000   0.00000000
   0.00000000   0.21361000   0.00000000   0.00000000   0.00000000
   0.00000000   0.00000000   1.00000000   0.00000000   0.00000000
   0.00000000   0.00000000   0.00000000   1.00000000   0.00000000
   0.00000000   0.00000000   0.00000000   0.00000000   1.00000000
* p-type functions
    7    4
         21.81000000
          4.89300000
          1.39760000
          0.47747000
          0.16419000
          0.05400400
          0.01667000
   0.00588410   0.00000000   0.00000000   0.00000000
   0.04179800   0.00000000   0.00000000   0.00000000
   0.15567000   0.00000000   0.00000000   0.00000000
   0.35997000   0.00000000   0.00000000   0.00000000
   0.00000000   1.00000000   0.00000000   0.00000000
   0.00000000   0.00000000   1.00000000   0.00000000
   0.00000000   0.00000000   0.00000000   1.00000000
* d-type functions
    3    3
          1.05000000
          0.35000000
          0.05001000
   1.00000000   0.00000000   0.00000000
   0.00000000   1.00000000   0.00000000
   0.00000000   0.00000000   1.00000000
* f-type functions
    2    2
          0.87000000
          0.06668000
   1.00000000   0.00000000
   0.00000000   1.00000000

/C.aug-pc-2.Jensen.11s7p3d2f.5s4p3d2f.
F. Jensen. J. Chem. Phys. 117 (2002) 9234-9240. doi:10.1063/1.1515484
CARBON (11s,7p,3d,2f) -> [5s,4p,3d,2f]
     6.0   3
* s-type functions
   11    5
       7857.10000000
       1178.70000000
        268.32000000
         75.94800000
         24.55900000
          8.62120000
          3.12780000
          0.82202000
          0.33017000
          0.11463000
          0.03721700
   0.00056825   0.00000000   0.00000000   0.00000000   0.00000000
   0.00439150  -5.94920e-7   0.00000000   0.00000000   0.00000000
   0.02250400  -6.27480e-5   0.00000000   0.00000000   0.00000000
   0.08665300  -0.00075773   0.00000000   0.00000000   0.00000000
   0.24405000  -0.00733080   0.00000000   0.00000000   0.00000000
   0.44148000  -0.03893200   0.00000000   0.00000000   0.00000000
   0.35332000  -0.08890800   0.00000000   0.00000000   0.00000000
   0.00000000   0.21689000   0.00000000   0.00000000   0.00000000
   0.00000000   0.00000000   1.00000000   0.00000000   0.00000000
   0.00000000   0.00000000   0.00000000   1.00000000   0.00000000
   0.00000000   0.00000000   0.00000000   0.00000000   1.00000000
* p-type functions
    7    4
         33.77500000
          7.67660000
          2.23570000
          0.76447000
          0.26232000
          0.08463800
          0.02644900
   0.00602940   0.00000000   0.00000000   0.00000000
   0.04322800   0.00000000   0.00000000   0.00000000
   0.16301000   0.00000000   0.00000000   0.00000000
   0.36504000   0.00000000   0.00000000   0.00000000
   0.00000000   1.00000000   0.00000000   0.00000000
   0.00000000   0.00000000   1.00000000   0.00000000
   0.00000000   0.00000000   0.00000000   1.00000000
* d-type functions
    3    3
          1.40000000
          0.45000000
          0.07934800
   1.00000000   0.00000000   0.00000000
   0.00000000   1.00000000   0.00000000
   0.00000000   0.00000000   1.00000000
* f-type functions
    2    2
          0.95000000
          0.10580000
   1.00000000   0.00000000
   0.00000000   1.00000000

/N.aug-pc-2.Jensen.11s7p3d2f.5s4p3d2f.
F. Jensen. J. Chem. Phys. 117 (2002) 9234-9240. doi:10.1063/1.1515484
NITROGEN (11s,7p,3d,2f) -> [5s,4p,3d,2f]
     7.0   3
* s-type functions
   11    5
      11101.00000000
       1665.30000000
        379.08000000
        107.30000000
         34.74700000
         12.24900000
          4.47430000
          1.24040000
          0.48743000
          0.16484000
          0.05216500
   0.00054570   0.00000000   0.00000000   0.00000000   0.00000000
   0.00421810  -1.50060e-6   0.00000000   0.00000000   0.00000000
   0.02164500  -5.87530e-5   0.00000000   0.00000000   0.00000000
   0.08377600  -0.00077453   0.00000000   0.00000000   0.00000000
   0.23881000  -0.00721610   0.00000000   0.00000000   0.00000000
   0.43994000  -0.03933800   0.00000000   0.00000000   0.00000000
   0.36364000  -0.09061100   0.00000000   0.00000000   0.00000000
   0.00000000   0.19882000   0.00000000   0.00000000   0.00000000
   0.00000000   0.00000000   1.00000000   0.00000000   0.00000000
   0.00000000   0.00000000   0.00000000   1.00000000   0.00000000
   0.00000000   0.00000000   0.00000000   0.00000000   1.00000000
* p-type functions
    7    4
         47.93400000
         10.99900000
          3.24720000
          1.11140000
          0.37988000
          0.12068000
          0.03602300
   0.00617060   0.00000000   0.00000000   0.00000000
   0.04426000   0.00000000   0.00000000   0.00000000
   0.16825000   0.00000000   0.00000000   0.00000000
   0.36848000   0.00000000   0.00000000   0.00000000
   0.00000000   1.00000000   0.00000000   0.00000000
   0.00000000   0.00000000   1.00000000   0.00000000
   0.00000000   0.00000000   0.00000000   1.00000000
* d-type functions
    3    3
          1.80000000
          0.55000000
          0.10807000
   1.00000000   0.00000000   0.00000000
   0.00000000   1.00000000   0.00000000
   0.00000000   0.00000000   1.00000000
* f-type functions
    2    2
          1.02000000
          0.14409000
   1.00000000   0.00000000
   0.00000000   1.00000000

/O.aug-pc-2.Jensen.11s7p3d2f.5s4p3d2f.
F. Jensen. J. Chem. Phys. 117 (2002) 9234-9240. doi:10.1063/1.1515484
OXYGEN (11s,7p,3d,2f) -> [5s,4p,3d,2f]
     8.0   3
* s-type functions
   11    5
      14782.00000000
       2217.30000000
        504.74000000
        142.87000000
         46.30000000
         16.33700000
          5.98280000
          1.67180000
          0.64662000
          0.21669000
          0.06814100
   0.00053519   0.00000000   0.00000000   0.00000000   0.00000000
   0.00413750  -1.92750e-6   0.00000000   0.00000000   0.00000000
   0.02124500  -5.79640e-5   0.00000000   0.00000000   0.00000000
   0.08245300  -0.00079494   0.00000000   0.00000000   0.00000000
   0.23671000  -0.00731250   0.00000000   0.00000000   0.00000000
   0.44039000  -0.04057400   0.00000000   0.00000000   0.00000000
   0.36465000  -0.09159400   0.00000000   0.00000000   0.00000000
   0.00000000   0.20940000   0.00000000   0.00000000   0.00000000
   0.00000000   0.00000000   1.00000000   0.00000000   0.00000000
   0.00000000   0.00000000   0.00000000   1.00000000   0.00000000
   0.00000000   0.00000000   0.00000000   0.00000000   1.00000000
* p-type functions
    7    4
         60.42400000
         13.93500000
          4.15310000
          1.41580000
          0.47549000
          0.14529000
          0.04187100
   0.00689490   0.00000000   0.00000000   0.00000000
   0.04900500   0.00000000   0.00000000   0.00000000
   0.18255000   0.00000000   0.00000000   0.00000000
   0.37633000   0.00000000   0.00000000   0.00000000
   0.00000000   1.00000000   0.00000000   0.00000000
   0.00000000   0.00000000   1.00000000   0.00000000
   0.00000000   0.00000000   0.00000000   1.00000000
* d-type functions
    3    3
          2.20000000
          0.65000000
          0.12561000
   1.00000000   0.00000000   0.00000000
   0.00000000   1.00000000   0.00000000
   0.00000000   0.00000000   1.00000000
* f-type functions
    2    2
          1.10000000
          0.16748000
   1.00000000   0.00000000
   0.00000000   1.00000000

/F.aug-pc-2.Jensen.11s7p3d2f.5s4p3d2f.
F. Jensen. J. Chem. Phys. 117 (2002) 9234-9240. doi:10.1063/1.1515484
FLUORINE (11s,7p,3d,2f) -> [5s,4p,3d,2f]
     9.0   3
* s-type functions
   11    5
      19127.00000000
       2868.90000000
        653.04000000
        184.85000000
         59.94900000
         21.19000000
          7.78460000
          2.23050000
          0.85409000
          0.28336000
          0.08827600
   0.00052250   0.00000000   0.00000000   0.00000000   0.00000000
   0.00404000  -2.25760e-6   0.00000000   0.00000000   0.00000000
   0.02075900  -0.00005664   0.00000000   0.00000000   0.00000000
   0.08080000  -0.00079782   0.00000000   0.00000000   0.00000000
   0.23362000  -0.00727130   0.00000000   0.00000000   0.00000000
   0.43965000  -0.04083100   0.00000000   0.00000000   0.00000000
   0.37041000  -0.09293100   0.00000000   0.00000000   0.00000000
   0.00000000   0.20228000   0.00000000   0.00000000   0.00000000
   0.00000000   0.00000000   1.00000000   0.00000000   0.00000000
   0.00000000   0.00000000   0.00000000   1.00000000   0.00000000
   0.00000000   0.00000000   0.00000000   0.00000000   1.00000000
* p-type functions
    7    4
         77.63900000
         17.96500000
          5.40050000
          1.84230000
          0.61532000
          0.18489000
          0.05237600
   0.00703130   0.00000000   0.00000000   0.00000000
   0.05013700   0.00000000   0.00000000   0.00000000
   0.18553000   0.00000000   0.00000000   0.00000000
   0.37546000   0.00000000   0.00000000   0.00000000
   0.00000000   1.00000000   0.00000000   0.00000000
   0.00000000   0.00000000   1.00000000   0.00000000
   0.00000000   0.00000000   0.00000000   1.00000000
* d-type functions
    3    3
          2.80000000
          0.80000000
          0.15713000
   1.00000000   0.00000000   0.00000000
   0.00000000   1.00000000   0.00000000
   0.00000000   0.00000000   1.00000000
* f-type functions
    2    2
          1.20000000
          0.20951000
   1.00000000   0.00000000
   0.00000000   1.00000000

/Ne.aug-pc-2.Jensen.11s7p3d2f.5s4p3d2f.
F. Jensen. J. Phys. Chem. A 111 (2007) 11198-11204. doi:10.1021/jp068677h
NEON (11s,7p,3d,2f) -> [5s,4p,3d,2f]
    10.0   3
* s-type functions
   11    5
      23880.00000000
       3581.70000000
        815.27000000
        230.77000000
         74.88400000
         26.51800000
          9.76920000
          2.83050000
          1.07400000
          0.35400000
          0.10950000
   0.00025835   0.00000000   0.00000000   0.00000000   0.00000000
   0.00199770  -7.65350e-6   0.00000000   0.00000000   0.00000000
   0.01026900  -0.00013638   0.00000000   0.00000000   0.00000000
   0.04003600  -0.00206690   0.00000000   0.00000000   0.00000000
   0.11619000  -0.01814000   0.00000000   0.00000000   0.00000000
   0.21959000  -0.10379000   0.00000000   0.00000000   0.00000000
   0.18608000  -0.23283000   0.00000000   0.00000000   0.00000000
   0.00000000   0.50798000   0.00000000   0.00000000   0.00000000
   0.00000000   0.00000000   1.00000000   0.00000000   0.00000000
   0.00000000   0.00000000   0.00000000   1.00000000   0.00000000
   0.00000000   0.00000000   0.00000000   0.00000000   1.00000000
* p-type functions
    7    4
         97.10600000
         22.54300000
          6.81730000
          2.32630000
          0.77425000
          0.23026000
          0.06462000
   0.00356680   0.00000000   0.00000000   0.00000000
   0.02546700   0.00000000   0.00000000   0.00000000
   0.09401600   0.00000000   0.00000000   0.00000000
   0.18796000   0.00000000   0.00000000   0.00000000
   0.00000000   1.00000000   0.00000000   0.00000000
   0.00000000   0.00000000   1.00000000   0.00000000
   0.00000000   0.00000000   0.00000000   1.00000000
* d-type functions
    3    3
          3.00000000
          0.85000000
          0.19390000
   1.00000000   0.00000000   0.00000000
   0.00000000   1.00000000   0.00000000
   0.00000000   0.00000000   1.00000000
* f-type functions
    2    2
          1.30000000
          0.25850000
   1.00000000   0.00000000
   0.00000000   1.00000000

/Na.aug-pc-2.Jensen.14s10p2d.6s4p2d.
F. Jensen. J. Phys. Chem. A 111 (2007) 11198-11204. doi:10.1021/jp068677h
SODIUM (14s,10p,2d) -> [6s,4p,2d]
    11.0   2
* s-type functions
   14    6
      64474.00000000
       9667.50000000
       2200.80000000
        623.26000000
        203.12000000
         72.94400000
         28.02600000
         11.05500000
          3.54900000
          1.40820000
          0.51148000
          0.06953400
          0.02512000
          0.00846300
   0.00019020   0.00000000   0.00000000   0.00000000   0.00000000   0.00000000
   0.00147490   0.00000000   0.00000000   0.00000000   0.00000000   0.00000000
   0.00767780  -1.38810e-5   4.50010e-6   0.00000000   0.00000000   0.00000000
   0.03133300  -0.00014242   5.44690e-5   0.00000000   0.00000000   0.00000000
   0.10269000  -0.00181590   0.00061058   0.00000000   0.00000000   0.00000000
   0.25598000  -0.01209300   0.00417240   0.00000000   0.00000000   0.00000000
   0.41517000  -0.05682300   0.01823100   0.00000000   0.00000000   0.00000000
   0.30473000  -0.10110000   0.02901700   0.00000000   0.00000000   0.00000000
   0.04114600   0.22498000  -0.05293200   0.00000000   0.00000000   0.00000000
   0.00000000   0.51711000   0.16965000   0.00000000   0.00000000   0.00000000
   0.00000000   0.00000000   0.88478000   0.00000000   0.00000000   0.00000000
   0.00000000   0.00000000   0.00000000   1.00000000   0.00000000   0.00000000
   0.00000000   0.00000000   0.00000000   0.00000000   1.00000000   0.00000000
   0.00000000   0.00000000   0.00000000   0.00000000   0.00000000   1.00000000
* p-type functions
   10    4
        230.53000000
         54.20100000
         17.40200000
          6.31520000
          2.40840000
          0.90249000
          0.31450000
          0.12100000
          0.03900000
          0.01300000
   0.00254200   0.00000000   0.00000000   0.00000000
   0.01976800   0.00000000   0.00000000   0.00000000
   0.08348000   0.00000000   0.00000000   0.00000000
   0.23282000   0.00000000   0.00000000   0.00000000
   0.38216000   0.00000000   0.00000000   0.00000000
   0.37985000   0.00000000   0.00000000   0.00000000
   0.16287000   0.00000000   0.00000000   0.00000000
   0.00000000   1.00000000   0.00000000   0.00000000
   0.00000000   0.00000000   1.00000000   0.00000000
   0.00000000   0.00000000   0.00000000   1.00000000
* d-type functions
    2    2
          0.24000000
          0.03385000
   1.00000000   0.00000000
   0.00000000   1.00000000

/Mg.aug-pc-2.Jensen.14s10p2d.6s4p2d.
F. Jensen. J. Phys. Chem. A 111 (2007) 11198-11204. doi:10.1021/jp068677h
MAGNESIUM (14s,10p,2d) -> [6s,4p,2d]
    12.0   2
* s-type functions
   14    6
      81017.00000000
      12143.00000000
       2763.80000000
        782.58000000
        255.03000000
         91.62300000
         35.24500000
         13.96000000
          4.74220000
          1.92840000
          0.72424000
          0.12353000
          0.04303200
          0.01401000
   8.90530e-5   0.00000000   0.00000000   0.00000000   0.00000000   0.00000000
   0.00069088  -5.21340e-7   0.00000000   0.00000000   0.00000000   0.00000000
   0.00359990  -4.07530e-6  -0.00001191   0.00000000   0.00000000   0.00000000
   0.01472100  -8.24830e-5  -0.00014781   0.00000000   0.00000000   0.00000000
   0.04857200  -0.00070727  -0.00168720   0.00000000   0.00000000   0.00000000
   0.12279000  -0.00549130  -0.01186400   0.00000000   0.00000000   0.00000000
   0.20506000  -0.02385900  -0.05598300   0.00000000   0.00000000   0.00000000
   0.15913000  -0.04982700  -0.11311000   0.00000000   0.00000000   0.00000000
   0.02509900   0.08349700   0.18789000   0.00000000   0.00000000   0.00000000
   0.00000000   0.19563000   0.71752000   0.00000000   0.00000000   0.00000000
   0.00000000   0.00000000   0.53956000   0.00000000   0.00000000   0.00000000
   0.00000000   0.00000000   0.00000000   1.00000000   0.00000000   0.00000000
   0.00000000   0.00000000   0.00000000   0.00000000   1.00000000   0.00000000
   0.00000000   0.00000000   0.00000000   0.00000000   0.00000000   1.00000000
* p-type functions
   10    4
        309.05000000
         72.89400000
         23.49400000
          8.56190000
          3.30680000
          1.26940000
          0.46106000
          0.17700000
          0.05700000
          0.01900000
   0.00111300   0.00000000   0.00000000   0.00000000
   0.00875690   0.00000000   0.00000000   0.00000000
   0.03825400   0.00000000   0.00000000   0.00000000
   0.11095000   0.00000000   0.00000000   0.00000000
   0.19174000   0.00000000   0.00000000   0.00000000
   0.19457000   0.00000000   0.00000000   0.00000000
   0.07820400   0.00000000   0.00000000   0.00000000
   0.00000000   1.00000000   0.00000000   0.00000000
   0.00000000   0.00000000   1.00000000   0.00000000
   0.00000000   0.00000000   0.00000000   1.00000000
* d-type functions
    2    2
          0.30000000
          0.05605000
   1.00000000   0.00000000
   0.00000000   1.00000000

/Al.aug-pc-2.Jensen.14s11p3d2f.6s5p3d2f.
F. Jensen. J. Phys. Chem. A 111 (2007) 11198-11204. doi:10.1021/jp068677h
ALUMINIUM (14s,11p,3d,2f) -> [6s,5p,3d,2f]
    13.0   3
* s-type functions
   14    6
      99741.00000000
      14949.00000000
       3402.50000000
        963.53000000
        314.05000000
        112.88000000
         43.47400000
         17.29200000
          6.16220000
          2.52260000
          0.96874000
          0.19251000
          0.06781300
          0.02231000
   0.00016809   0.00000000   0.00000000   0.00000000   0.00000000   0.00000000
   0.00130410  -0.00000048   0.00000000   0.00000000   0.00000000   0.00000000
   0.00679790  -2.04740e-6  -5.55800e-6   0.00000000   0.00000000   0.00000000
   0.02784000  -5.57330e-5  -6.90470e-5   0.00000000   0.00000000   0.00000000
   0.09235800  -0.00041853  -0.00079085   0.00000000   0.00000000   0.00000000
   0.23633000  -0.00348130  -0.00564140   0.00000000   0.00000000   0.00000000
   0.40484000  -0.01486400  -0.02728800   0.00000000   0.00000000   0.00000000
   0.32992000  -0.03401200  -0.05953800   0.00000000   0.00000000   0.00000000
   0.05852100   0.04389600   0.07239300   0.00000000   0.00000000   0.00000000
   0.00000000   0.11958000   0.41226000   0.00000000   0.00000000   0.00000000
   0.00000000   0.00000000   0.39165000   0.00000000   0.00000000   0.00000000
   0.00000000   0.00000000   0.00000000   1.00000000   0.00000000   0.00000000
   0.00000000   0.00000000   0.00000000   0.00000000   1.00000000   0.00000000
   0.00000000   0.00000000   0.00000000   0.00000000   0.00000000   1.00000000
* p-type functions
   11    5
        579.71000000
        137.54000000
         44.06700000
         16.14800000
          6.48880000
          2.66320000
          1.07920000
          0.39771000
          0.13475000
          0.04218500
          0.01243000
   0.00105610   0.00000000   0.00000000   0.00000000   0.00000000
   0.00863350   2.96660e-5   0.00000000   0.00000000   0.00000000
   0.04322700  -0.00010593   0.00000000   0.00000000   0.00000000
   0.14168000  -0.00017370   0.00000000   0.00000000   0.00000000
   0.30352000  -0.00443150   0.00000000   0.00000000   0.00000000
   0.40389000  -0.00441340   0.00000000   0.00000000   0.00000000
   0.28642000  -0.00107230   0.00000000   0.00000000   0.00000000
   0.00000000   0.17650000   0.00000000   0.00000000   0.00000000
   0.00000000   0.00000000   1.00000000   0.00000000   0.00000000
   0.00000000   0.00000000   0.00000000   1.00000000   0.00000000
   0.00000000   0.00000000   0.00000000   0.00000000   1.00000000
* d-type functions
    3    3
          1.47000000
          0.33000000
          0.03729000
   1.00000000   0.00000000   0.00000000
   0.00000000   1.00000000   0.00000000
   0.00000000   0.00000000   1.00000000
* f-type functions
    2    2
          0.48000000
          0.04972000
   1.00000000   0.00000000
   0.00000000   1.00000000

/Si.aug-pc-2.Jensen.14s11p3d2f.6s5p3d2f.
F. Jensen, T. Helgaker. J. Chem. Phys. 121 (2004) 3463-3470. doi:10.1063/1.1756866
SILICON (14s,11p,3d,2f) -> [6s,5p,3d,2f]
    14.0   3
* s-type functions
   14    6
     120040.00000000
      17991.00000000
       4094.80000000
       1159.60000000
        378.00000000
        135.93000000
         52.41100000
         20.92700000
          7.71300000
          3.16040000
          1.23480000
          0.26775000
          0.09406700
          0.03087800
   0.00016075   0.00000000   0.00000000   0.00000000   0.00000000   0.00000000
   0.00124720  -6.84030e-7   0.00000000   0.00000000   0.00000000   0.00000000
   0.00650400  -2.11240e-6  -3.98970e-6   0.00000000   0.00000000   0.00000000
   0.02666500  -6.91570e-5  -5.02030e-5   0.00000000   0.00000000   0.00000000
   0.08881600  -0.00048080  -0.00057553   0.00000000   0.00000000   0.00000000
   0.22932000  -0.00416940  -0.00415240   0.00000000   0.00000000   0.00000000
   0.40025000  -0.01767400  -0.02043700   0.00000000   0.00000000   0.00000000
   0.33828000  -0.04289100  -0.04699800   0.00000000   0.00000000   0.00000000
   0.06551200   0.04536800   0.04398600   0.00000000   0.00000000   0.00000000
   0.00000000   0.13904000   0.33957000   0.00000000   0.00000000   0.00000000
   0.00000000   0.00000000   0.35038000   0.00000000   0.00000000   0.00000000
   0.00000000   0.00000000   0.00000000   1.00000000   0.00000000   0.00000000
   0.00000000   0.00000000   0.00000000   0.00000000   1.00000000   0.00000000
   0.00000000   0.00000000   0.00000000   0.00000000   0.00000000   1.00000000
* p-type functions
   11    5
        677.13000000
        160.67000000
         51.58500000
         18.94800000
          7.61630000
          3.13170000
          1.27030000
          0.43332000
          0.16088000
          0.05488300
          0.01752700
   0.00109250   0.00000000   0.00000000   0.00000000   0.00000000
   0.00896010   7.90140e-6   0.00000000   0.00000000   0.00000000
   0.04474400  -0.00013613   0.00000000   0.00000000   0.00000000
   0.14748000  -0.00090378   0.00000000   0.00000000   0.00000000
   0.31480000  -0.00558630   0.00000000   0.00000000   0.00000000
   0.41339000  -0.01014100   0.00000000   0.00000000   0.00000000
   0.26440000   0.01866100   0.00000000   0.00000000   0.00000000
   0.00000000   0.28890000   0.00000000   0.00000000   0.00000000
   0.00000000   0.00000000   1.00000000   0.00000000   0.00000000
   0.00000000   0.00000000   0.00000000   1.00000000   0.00000000
   0.00000000   0.00000000   0.00000000   0.00000000   1.00000000
* d-type functions
    3    3
          1.68000000
          0.38000000
          0.05258000
   1.00000000   0.00000000   0.00000000
   0.00000000   1.00000000   0.00000000
   0.00000000   0.00000000   1.00000000
* f-type functions
    2    2
          0.54000000
          0.07010700
   1.00000000   0.00000000
   0.00000000   1.00000000

/P.aug-pc-2.Jensen.14s11p3d2f.6s5p3d2f.
F. Jensen, T. Helgaker. J. Chem. Phys. 121 (2004) 3463-3470. doi:10.1063/1.1756866
PHOSPHORUS (14s,11p,3d,2f) -> [6s,5p,3d,2f]
    15.0   3
* s-type functions
   14    6
     145680.00000000
      21836.00000000
       4969.90000000
       1407.30000000
        458.78000000
        165.08000000
         63.74400000
         25.59800000
          9.93070000
          3.96860000
          1.55650000
          0.35404000
          0.12394000
          0.04054800
   0.00015016   0.00000000   0.00000000   0.00000000   0.00000000   0.00000000
   0.00116500  -1.05090e-6   0.00000000   0.00000000   0.00000000   0.00000000
   0.00607980  -1.68010e-6  -2.48630e-6   0.00000000   0.00000000   0.00000000
   0.02496800  -8.76010e-5  -3.09550e-5   0.00000000   0.00000000   0.00000000
   0.08363700  -0.00052745  -0.00035776   0.00000000   0.00000000   0.00000000
   0.21863000  -0.00495750  -0.00261230   0.00000000   0.00000000   0.00000000
   0.39234000  -0.02053500  -0.01320400   0.00000000   0.00000000   0.00000000
   0.35038000  -0.05503000  -0.03284800   0.00000000   0.00000000   0.00000000
   0.07728700   0.04158300   0.01818200   0.00000000   0.00000000   0.00000000
   0.00000000   0.17029000   0.25722000   0.00000000   0.00000000   0.00000000
   0.00000000   0.00000000   0.30682000   0.00000000   0.00000000   0.00000000
   0.00000000   0.00000000   0.00000000   1.00000000   0.00000000   0.00000000
   0.00000000   0.00000000   0.00000000   0.00000000   1.00000000   0.00000000
   0.00000000   0.00000000   0.00000000   0.00000000   0.00000000   1.00000000
* p-type functions
   11    5
        826.23000000
        196.02000000
         62.95100000
         23.22200000
          9.38850000
          3.89970000
          1.60480000
          0.56053000
          0.21175000
          0.07348600
          0.02384800
   0.00102250   0.00000000   0.00000000   0.00000000   0.00000000
   0.00844720   4.10820e-6   0.00000000   0.00000000   0.00000000
   0.04266400  -0.00015057   0.00000000   0.00000000   0.00000000
   0.14239000  -0.00111410   0.00000000   0.00000000   0.00000000
   0.31059000  -0.00649420   0.00000000   0.00000000   0.00000000
   0.41672000  -0.01246900   0.00000000   0.00000000   0.00000000
   0.26618000   0.02345800   0.00000000   0.00000000   0.00000000
   0.00000000   0.32270000   0.00000000   0.00000000   0.00000000
   0.00000000   0.00000000   1.00000000   0.00000000   0.00000000
   0.00000000   0.00000000   0.00000000   1.00000000   0.00000000
   0.00000000   0.00000000   0.00000000   0.00000000   1.00000000
* d-type functions
    3    3
          1.89000000
          0.43000000
          0.07154300
   1.00000000   0.00000000   0.00000000
   0.00000000   1.00000000   0.00000000
   0.00000000   0.00000000   1.00000000
* f-type functions
    2    2
          0.60000000
          0.09539000
   1.00000000   0.00000000
   0.00000000   1.00000000

/S.aug-pc-2.Jensen.14s11p3d2f.6s5p3d2f.
F. Jensen, T. Helgaker. J. Chem. Phys. 121 (2004) 3463-3470. doi:10.1063/1.1756866
SULFUR (14s,11p,3d,2f) -> [6s,5p,3d,2f]
    16.0   3
* s-type functions
   14    6
     172030.00000000
      25783.00000000
       5868.20000000
       1661.70000000
        541.75000000
        195.01000000
         75.39600000
         30.40700000
         12.12100000
          4.77770000
          1.89060000
          0.44686000
          0.15621000
          0.05103700
   0.00014353   0.00000000   0.00000000   0.00000000   0.00000000   0.00000000
   0.00111370  -1.18620e-6   0.00000000   0.00000000   0.00000000   0.00000000
   0.00581430  -1.23210e-6  -2.19720e-6   0.00000000   0.00000000   0.00000000
   0.02390300  -0.00009048  -2.83670e-5   0.00000000   0.00000000   0.00000000
   0.08035400  -0.00050105  -0.00032591   0.00000000   0.00000000   0.00000000
   0.21175000  -0.00495100  -0.00241310   0.00000000   0.00000000   0.00000000
   0.38664000  -0.02025200  -0.01235200   0.00000000   0.00000000   0.00000000
   0.35747000  -0.05738800  -0.03211900   0.00000000   0.00000000   0.00000000
   0.08613100   0.03484700   0.01161100   0.00000000   0.00000000   0.00000000
   0.00000000   0.16833000   0.25542000   0.00000000   0.00000000   0.00000000
   0.00000000   0.00000000   0.31384000   0.00000000   0.00000000   0.00000000
   0.00000000   0.00000000   0.00000000   1.00000000   0.00000000   0.00000000
   0.00000000   0.00000000   0.00000000   0.00000000   1.00000000   0.00000000
   0.00000000   0.00000000   0.00000000   0.00000000   0.00000000   1.00000000
* p-type functions
   11    5
        968.12000000
        229.70000000
         73.83300000
         27.31200000
         11.07400000
          4.63070000
          1.92990000
          0.68783000
          0.25663000
          0.08725100
          0.02777600
   0.00100480   0.00000000   0.00000000   0.00000000   0.00000000
   0.00833130  -8.06930e-6   0.00000000   0.00000000   0.00000000
   0.04226000  -0.00016943   0.00000000   0.00000000   0.00000000
   0.14206000  -0.00152430   0.00000000   0.00000000   0.00000000
   0.31256000  -0.00719930   0.00000000   0.00000000   0.00000000
   0.41933000  -0.01611300   0.00000000   0.00000000   0.00000000
   0.25924000   0.03423400   0.00000000   0.00000000   0.00000000
   0.00000000   0.35518000   0.00000000   0.00000000   0.00000000
   0.00000000   0.00000000   1.00000000   0.00000000   0.00000000
   0.00000000   0.00000000   0.00000000   1.00000000   0.00000000
   0.00000000   0.00000000   0.00000000   0.00000000   1.00000000
* d-type functions
    3    3
          2.10000000
          0.48000000
          0.08332700
   1.00000000   0.00000000   0.00000000
   0.00000000   1.00000000   0.00000000
   0.00000000   0.00000000   1.00000000
* f-type functions
    2    2
          0.66000000
          0.11110000
   1.00000000   0.00000000
   0.00000000   1.00000000

/Cl.aug-pc-2.Jensen.14s11p3d2f.6s5p3d2f.
F. Jensen, T. Helgaker. J. Chem. Phys. 121 (2004) 3463-3470. doi:10.1063/1.1756866
CHLORINE (14s,11p,3d,2f) -> [6s,5p,3d,2f]
    17.0   3
* s-type functions
   14    6
     201150.00000000
      30146.00000000
       6861.00000000
       1942.80000000
        633.42000000
        228.10000000
         88.28800000
         35.75000000
         14.57100000
          5.65800000
          2.25540000
          0.54947000
          0.19126000
          0.06224100
   0.00013753   0.00000000   0.00000000   0.00000000   0.00000000   0.00000000
   0.00106710  -1.33900e-6   0.00000000   0.00000000   0.00000000   0.00000000
   0.00557370  -9.47140e-7  -1.96740e-6   0.00000000   0.00000000   0.00000000
   0.02293500  -9.46530e-5  -2.48680e-5   0.00000000   0.00000000   0.00000000
   0.07735400  -0.00048337  -0.00028967   0.00000000   0.00000000   0.00000000
   0.20534000  -0.00500090  -0.00215130   0.00000000   0.00000000   0.00000000
   0.38093000  -0.02023000  -0.01119500   0.00000000   0.00000000   0.00000000
   0.36361000  -0.06020900  -0.03018000   0.00000000   0.00000000   0.00000000
   0.09518200   0.02919500   0.00594560   0.00000000   0.00000000   0.00000000
   0.00000000   0.16993000   0.24702000   0.00000000   0.00000000   0.00000000
   0.00000000   0.00000000   0.31412000   0.00000000   0.00000000   0.00000000
   0.00000000   0.00000000   0.00000000   1.00000000   0.00000000   0.00000000
   0.00000000   0.00000000   0.00000000   0.00000000   1.00000000   0.00000000
   0.00000000   0.00000000   0.00000000   0.00000000   0.00000000   1.00000000
* p-type functions
   11    5
       1129.90000000
        268.06000000
         86.22200000
         31.97900000
         13.00800000
          5.47660000
          2.30900000
          0.84601000
          0.31659000
          0.10716000
          0.03397000
   0.00097621   0.00000000   0.00000000   0.00000000   0.00000000
   0.00812600  -1.15960e-5   0.00000000   0.00000000   0.00000000
   0.04143300  -0.00018289   0.00000000   0.00000000   0.00000000
   0.14035000  -0.00171700   0.00000000   0.00000000   0.00000000
   0.31207000  -0.00789740   0.00000000   0.00000000   0.00000000
   0.42099000  -0.01823700   0.00000000   0.00000000   0.00000000
   0.25664000   0.04003500   0.00000000   0.00000000   0.00000000
   0.00000000   0.36717000   0.00000000   0.00000000   0.00000000
   0.00000000   0.00000000   1.00000000   0.00000000   0.00000000
   0.00000000   0.00000000   0.00000000   1.00000000   0.00000000
   0.00000000   0.00000000   0.00000000   0.00000000   1.00000000
* d-type functions
    3    3
          2.31000000
          0.52000000
          0.10191000
   1.00000000   0.00000000   0.00000000
   0.00000000   1.00000000   0.00000000
   0.00000000   0.00000000   1.00000000
* f-type functions
    2    2
          0.72000000
          0.13588000
   1.00000000   0.00000000
   0.00000000   1.00000000

/Ar.aug-pc-2.Jensen.14s11p3d2f.6s5p3d2f.
F. Jensen. J. Phys. Chem. A 111 (2007) 11198-11204. doi:10.1021/jp068677h
ARGON (14s,11p,3d,2f) -> [6s,5p,3d,2f]
    18.0   3
* s-type functions
   14    6
     232510.00000000
      34844.00000000
       7930.30000000
       2245.70000000
        732.22000000
        263.77000000
        102.19000000
         41.52500000
         17.20200000
          6.59670000
          2.64770000
          0.66193000
          0.22901000
          0.07411000
   6.62580e-5   0.00000000   0.00000000   0.00000000   0.00000000   0.00000000
   0.00051412  -7.06230e-6   0.00000000   0.00000000   0.00000000   0.00000000
   0.00268610  -2.42260e-6  -9.37990e-7   0.00000000   0.00000000   0.00000000
   0.01106200  -0.00047564  -1.18310e-5   0.00000000   0.00000000   0.00000000
   0.03740800  -0.00227710  -0.00013817   0.00000000   0.00000000   0.00000000
   0.09992800  -0.02452700  -0.00103240   0.00000000   0.00000000   0.00000000
   0.18788000  -0.09819400  -0.00543290   0.00000000   0.00000000   0.00000000
   0.18427000  -0.30459000  -0.01508500   0.00000000   0.00000000   0.00000000
   0.05178200   0.11940000   0.00111200   0.00000000   0.00000000   0.00000000
   0.00000000   0.83173000   0.12461000   0.00000000   0.00000000   0.00000000
   0.00000000   0.00000000   0.16083000   0.00000000   0.00000000   0.00000000
   0.00000000   0.00000000   0.00000000   1.00000000   0.00000000   0.00000000
   0.00000000   0.00000000   0.00000000   0.00000000   1.00000000   0.00000000
   0.00000000   0.00000000   0.00000000   0.00000000   0.00000000   1.00000000
* p-type functions
   11    5
       1297.70000000
        307.86000000
         99.09600000
         36.83700000
         15.02700000
          6.36620000
          2.71100000
          1.01820000
          0.38274000
          0.12946000
          0.04101000
   0.00047997   0.00000000   0.00000000   0.00000000   0.00000000
   0.00400670  -6.64160e-6   0.00000000   0.00000000   0.00000000
   0.02049700  -9.88130e-5   0.00000000   0.00000000   0.00000000
   0.06981900  -0.00093571   0.00000000   0.00000000   0.00000000
   0.15625000  -0.00431330   0.00000000   0.00000000   0.00000000
   0.21099000  -0.00986480   0.00000000   0.00000000   0.00000000
   0.12665000   0.02233400   0.00000000   0.00000000   0.00000000
   0.00000000   0.18833000   0.00000000   0.00000000   0.00000000
   0.00000000   0.00000000   1.00000000   0.00000000   0.00000000
   0.00000000   0.00000000   0.00000000   1.00000000   0.00000000
   0.00000000   0.00000000   0.00000000   0.00000000   1.00000000
* d-type functions
    3    3
          2.52000000
          0.57000000
          0.12300000
   1.00000000   0.00000000   0.00000000
   0.00000000   1.00000000   0.00000000
   0.00000000   0.00000000   1.00000000
* f-type functions
    2    2
          0.78000000
          0.16400000
   1.00000000   0.00000000
   0.00000000   1.00000000

/K.aug-pc-2.Jensen.17s12p6d.7s5p4d.
F. Jensen. J. Chem. Phys. 136 (2012) 114107. doi:10.1063/1.3690460
POTASSIUM (17s,12p,6d) -> [7s,5p,4d]
    19.0   2
* s-type functions
   17    7
     490310.00000000
      73452.00000000
      16715.00000000
       4733.30000000
       1543.20000000
        556.14000000
        215.83000000
         88.67100000
         37.54500000
         14.82100000
          6.60380000
          2.84390000
          0.83912000
          0.31699000
          0.04646300
          0.01896900
          0.00715960
   7.68730e-5  -1.45570e-5   4.54200e-6   2.18330e-6   0.00000000   0.00000000   0.00000000
   0.00059725  -0.00011322   3.53960e-5   1.70290e-5   0.00000000   0.00000000   0.00000000
   0.00313090  -0.00059406   0.00018523   8.90050e-5   0.00000000   0.00000000   0.00000000
   0.01306500  -0.00249630   0.00078178   0.00037632   0.00000000   0.00000000   0.00000000
   0.04587800  -0.00890150   0.00277890   0.00133490   0.00000000   0.00000000   0.00000000
   0.13523000  -0.02745000   0.00866000   0.00417360   0.00000000   0.00000000   0.00000000
   0.31543000  -0.07094700   0.02244400   0.01078900   0.00000000   0.00000000   0.00000000
   0.50000000  -0.14113000   0.04625500   0.02240500   0.00000000   0.00000000   0.00000000
   0.39731000  -0.16641000   0.05635100   0.02719000   0.00000000   0.00000000   0.00000000
   0.07516200   0.08110800  -0.02923500  -0.01383600   0.00000000   0.00000000   0.00000000
  -0.00778050   0.50000000  -0.26267000  -0.13431000   0.00000000   0.00000000   0.00000000
   0.00268690   0.38155000  -0.26850000  -0.14280000   0.00000000   0.00000000   0.00000000
  -0.00082649   0.02777400   0.50000000   0.32871000   0.00000000   0.00000000   0.00000000
   0.00033236  -0.00528900   0.45268000   0.50000000   0.00000000   0.00000000   0.00000000
   0.00000000   0.00000000   0.00000000   0.00000000   1.00000000   0.00000000   0.00000000
   0.00000000   0.00000000   0.00000000   0.00000000   0.00000000   1.00000000   0.00000000
   0.00000000   0.00000000   0.00000000   0.00000000   0.00000000   0.00000000   1.00000000
* p-type functions
   12    5
       1565.20000000
        371.32000000
        119.48000000
         44.57300000
         18.27300000
          7.80090000
          3.35550000
          1.30200000
          0.51452000
          0.18643000
          0.04040000
          0.00839120
   0.00101910  -0.00025097   0.00000000   0.00000000   0.00000000
   0.00856660  -0.00211810   0.00000000   0.00000000   0.00000000
   0.04439500  -0.01111000   0.00000000   0.00000000   0.00000000
   0.15358000  -0.03945600   0.00000000   0.00000000   0.00000000
   0.35430000  -0.09553100   0.00000000   0.00000000   0.00000000
   0.50000000  -0.14269000   0.00000000   0.00000000   0.00000000
   0.32838000  -0.04649500   0.00000000   0.00000000   0.00000000
   0.04969000   0.32716000   0.00000000   0.00000000   0.00000000
  -0.00426620   0.50000000   0.00000000   0.00000000   0.00000000
   0.00000000   0.00000000   1.00000000   0.00000000   0.00000000
   0.00000000   0.00000000   0.00000000   1.00000000   0.00000000
   0.00000000   0.00000000   0.00000000   0.00000000   1.00000000
* d-type functions
    6    4
          6.79000000
          1.69600000
          0.49800000
          0.12600000
          0.02820000
          0.00604100
   0.07095300   0.00000000   0.00000000   0.00000000
   0.26515000   0.00000000   0.00000000   0.00000000
   0.50000000   0.00000000   0.00000000   0.00000000
   0.00000000   1.00000000   0.00000000   0.00000000
   0.00000000   0.00000000   1.00000000   0.00000000
   0.00000000   0.00000000   0.00000000   1.00000000

/Ca.aug-pc-2.Jensen.17s12p6d.7s5p4d.
F. Jensen. J. Chem. Phys. 136 (2012) 114107. doi:10.1063/1.3690460
CALCIUM (17s,12p,6d) -> [7s,5p,4d]
    20.0   2
* s-type functions
   17    7
     563990.00000000
      84494.00000000
      19229.00000000
       5445.60000000
       1775.80000000
        640.24000000
        248.67000000
        102.30000000
         43.45600000
         17.67000000
          7.79540000
          3.35640000
          1.02670000
          0.40855000
          0.07390200
          0.02921900
          0.01070600
   7.42520e-5  -1.42320e-5   4.71290e-6   2.15830e-6   0.00000000   0.00000000   0.00000000
   0.00057688  -0.00011061   3.66910e-5   1.67930e-5   0.00000000   0.00000000   0.00000000
   0.00302420  -0.00058089   0.00019227   8.80770e-5   0.00000000   0.00000000   0.00000000
   0.01262600  -0.00243880   0.00081021   0.00037076   0.00000000   0.00000000   0.00000000
   0.04438100  -0.00871430   0.00288850   0.00132390   0.00000000   0.00000000   0.00000000
   0.13131000  -0.02688700   0.00899580   0.00411810   0.00000000   0.00000000   0.00000000
   0.30898000  -0.07006100   0.02354200   0.01081500   0.00000000   0.00000000   0.00000000
   0.50000000  -0.14075000   0.04889600   0.02245500   0.00000000   0.00000000   0.00000000
   0.41353000  -0.17370000   0.06262300   0.02911300   0.00000000   0.00000000   0.00000000
   0.08678900   0.05771400  -0.02186300  -0.01054800   0.00000000   0.00000000   0.00000000
  -0.00657430   0.50000000  -0.27512000  -0.13286000   0.00000000   0.00000000   0.00000000
   0.00250180   0.40876000  -0.31005000  -0.16314000   0.00000000   0.00000000   0.00000000
  -0.00084272   0.03366600   0.50000000   0.33699000   0.00000000   0.00000000   0.00000000
   0.00036306  -0.00658010   0.49432000   0.50000000   0.00000000   0.00000000   0.00000000
   0.00000000   0.00000000   0.00000000   0.00000000   1.00000000   0.00000000   0.00000000
   0.00000000   0.00000000   0.00000000   0.00000000   0.00000000   1.00000000   0.00000000
   0.00000000   0.00000000   0.00000000   0.00000000   0.00000000   0.00000000   1.00000000
* p-type functions
   12    5
       1838.80000000
        436.11000000
        140.32000000
         52.50000000
         21.60700000
          9.28100000
          4.02590000
          1.60080000
          0.65429000
          0.24875000
          0.05410000
          0.01127500
   0.00094221  -0.00024151   0.00000000   0.00000000   0.00000000
   0.00796230  -0.00204650   0.00000000   0.00000000   0.00000000
   0.04162100  -0.01084300   0.00000000   0.00000000   0.00000000
   0.14566000  -0.03889900   0.00000000   0.00000000   0.00000000
   0.34344000  -0.09653900   0.00000000   0.00000000   0.00000000
   0.50000000  -0.14857000   0.00000000   0.00000000   0.00000000
   0.34366000  -0.05879500   0.00000000   0.00000000   0.00000000
   0.05735000   0.31848000   0.00000000   0.00000000   0.00000000
  -0.00452930   0.50000000   0.00000000   0.00000000   0.00000000
   0.00000000   0.00000000   1.00000000   0.00000000   0.00000000
   0.00000000   0.00000000   0.00000000   1.00000000   0.00000000
   0.00000000   0.00000000   0.00000000   0.00000000   1.00000000
* d-type functions
    6    4
         11.46000000
          2.99400000
          0.92500000
          0.26400000
          0.06710000
          0.01623000
   0.05584900   0.00000000   0.00000000   0.00000000
   0.24111000   0.00000000   0.00000000   0.00000000
   0.50000000   0.00000000   0.00000000   0.00000000
   0.00000000   1.00000000   0.00000000   0.00000000
   0.00000000   0.00000000   1.00000000   0.00000000
   0.00000000   0.00000000   0.00000000   1.00000000

/Sc.aug-pc-2.Jensen.17s12p9d3f2g.7s5p4d3f2g.
F. Jensen. J. Chem. Phys. 138 (2013) 014107. doi:10.1063/1.4773017
SCANDIUM (17s,12p,9d,3f,2g) -> [7s,5p,4d,3f,2g]
    21.0   4
* s-type functions
   17    7
     627730.00000000
      94052.00000000
      21398.00000000
       6057.60000000
       1974.70000000
        711.75000000
        276.42000000
        113.74000000
         48.37100000
         19.73100000
          8.76800000
          3.80550000
          1.19080000
          0.47421000
          0.08668200
          0.03328800
          0.01187100
   7.35490e-5  -1.41920e-5   4.75560e-6   2.18780e-6   0.00000000   0.00000000   0.00000000
   0.00057146  -0.00011031   3.70340e-5   1.70270e-5   0.00000000   0.00000000   0.00000000
   0.00299750  -0.00057968   0.00019412   8.93310e-5   0.00000000   0.00000000   0.00000000
   0.01252200  -0.00243490   0.00081882   0.00037641   0.00000000   0.00000000   0.00000000
   0.04405300  -0.00870800   0.00292000   0.00134450   0.00000000   0.00000000   0.00000000
   0.13053000  -0.02690200   0.00911420   0.00419130   0.00000000   0.00000000   0.00000000
   0.30786000  -0.07025900   0.02388800   0.01102600   0.00000000   0.00000000   0.00000000
   0.50000000  -0.14164000   0.04988900   0.02301900   0.00000000   0.00000000   0.00000000
   0.41619000  -0.17576000   0.06416900   0.02998600   0.00000000   0.00000000   0.00000000
   0.08871300   0.05568000  -0.02116700  -0.01030400   0.00000000   0.00000000   0.00000000
  -0.00669320   0.50000000  -0.28163000  -0.13687000   0.00000000   0.00000000   0.00000000
   0.00258780   0.40915000  -0.31324000  -0.16592000   0.00000000   0.00000000   0.00000000
  -0.00087244   0.03410700   0.50000000   0.33869000   0.00000000   0.00000000   0.00000000
   0.00036884  -0.00636810   0.49431000   0.50000000   0.00000000   0.00000000   0.00000000
   0.00000000   0.00000000   0.00000000   0.00000000   1.00000000   0.00000000   0.00000000
   0.00000000   0.00000000   0.00000000   0.00000000   0.00000000   1.00000000   0.00000000
   0.00000000   0.00000000   0.00000000   0.00000000   0.00000000   0.00000000   1.00000000
* p-type functions
   12    5
       2084.90000000
        494.49000000
        159.17000000
         59.65500000
         24.60400000
         10.61300000
          4.63310000
          1.86640000
          0.76764000
          0.29332000
          0.06400000
          0.01338100
   0.00091431  -0.00024044   0.00000000   0.00000000   0.00000000
   0.00774500  -0.00204400   0.00000000   0.00000000   0.00000000
   0.04063900  -0.01086600   0.00000000   0.00000000   0.00000000
   0.14312000  -0.03927800   0.00000000   0.00000000   0.00000000
   0.34062000  -0.09842600   0.00000000   0.00000000   0.00000000
   0.50000000  -0.15310000   0.00000000   0.00000000   0.00000000
   0.34582000  -0.06083500   0.00000000   0.00000000   0.00000000
   0.05848600   0.32212000   0.00000000   0.00000000   0.00000000
  -0.00427970   0.50000000   0.00000000   0.00000000   0.00000000
   0.00000000   0.00000000   1.00000000   0.00000000   0.00000000
   0.00000000   0.00000000   0.00000000   1.00000000   0.00000000
   0.00000000   0.00000000   0.00000000   0.00000000   1.00000000
* d-type functions
    9    4
         65.39100000
         19.28700000
          7.13720000
          2.78680000
          1.13710000
          0.45070000
          0.17109000
          0.05981100
          0.01954300
   0.00399100   0.00000000   0.00000000   0.00000000
   0.02764500   0.00000000   0.00000000   0.00000000
   0.10438000   0.00000000   0.00000000   0.00000000
   0.27396000   0.00000000   0.00000000   0.00000000
   0.43829000   0.00000000   0.00000000   0.00000000
   0.50000000   0.00000000   0.00000000   0.00000000
   0.00000000   1.00000000   0.00000000   0.00000000
   0.00000000   0.00000000   1.00000000   0.00000000
   0.00000000   0.00000000   0.00000000   1.00000000
* f-type functions
    3    3
          2.20600000
          0.49000000
          0.05352200
   1.00000000   0.00000000   0.00000000
   0.00000000   1.00000000   0.00000000
   0.00000000   0.00000000   1.00000000
* g-type functions
    2    2
          1.11800000
          0.06690300
   1.00000000   0.00000000
   0.00000000   1.00000000

/Ti.aug-pc-2.Jensen.17s12p9d3f2g.7s5p4d3f2g.
F. Jensen. J. Chem. Phys. 138 (2013) 014107. doi:10.1063/1.4773017
TITANIUM (17s,12p,9d,3f,2g) -> [7s,5p,4d,3f,2g]
    22.0   4
* s-type functions
   17    7
     690080.00000000
     103380.00000000
      23528.00000000
       6663.10000000
       2172.90000000
        783.50000000
        304.39000000
        125.27000000
         53.29600000
         21.70100000
          9.73750000
          4.26200000
          1.35940000
          0.54108000
          0.09852200
          0.03716800
          0.01303800
   7.34570e-5  -1.42490e-5   4.81180e-6   2.22400e-6   0.00000000   0.00000000   0.00000000
   0.00057071  -0.00011075   3.74820e-5   1.73140e-5   0.00000000   0.00000000   0.00000000
   0.00299190  -0.00058162   0.00019626   9.07420e-5   0.00000000   0.00000000   0.00000000
   0.01249200  -0.00244210   0.00082804   0.00038241   0.00000000   0.00000000   0.00000000
   0.04393300  -0.00873030   0.00294960   0.00136460   0.00000000   0.00000000   0.00000000
   0.13018000  -0.02697900   0.00921940   0.00425940   0.00000000   0.00000000   0.00000000
   0.30737000  -0.07053500   0.02416600   0.01120800   0.00000000   0.00000000   0.00000000
   0.50000000  -0.14259000   0.05073000   0.02352000   0.00000000   0.00000000   0.00000000
   0.41692000  -0.17698000   0.06516100   0.03061500   0.00000000   0.00000000   0.00000000
   0.08893400   0.05711200  -0.02178400  -0.01068800   0.00000000   0.00000000   0.00000000
  -0.00712500   0.50000000  -0.28775000  -0.14079000   0.00000000   0.00000000   0.00000000
   0.00274850   0.40533000  -0.31138000  -0.16607000   0.00000000   0.00000000   0.00000000
  -0.00092150   0.03379800   0.50000000   0.34077000   0.00000000   0.00000000   0.00000000
   0.00038132  -0.00604550   0.49112000   0.50000000   0.00000000   0.00000000   0.00000000
   0.00000000   0.00000000   0.00000000   0.00000000   1.00000000   0.00000000   0.00000000
   0.00000000   0.00000000   0.00000000   0.00000000   0.00000000   1.00000000   0.00000000
   0.00000000   0.00000000   0.00000000   0.00000000   0.00000000   0.00000000   1.00000000
* p-type functions
   12    5
       2338.00000000
        554.43000000
        178.54000000
         67.00600000
         27.68800000
         11.99000000
          5.26400000
          2.14430000
          0.88504000
          0.33961000
          0.07400000
          0.01545100
   0.00089587  -0.00024016   0.00000000   0.00000000   0.00000000
   0.00760440  -0.00204750   0.00000000   0.00000000   0.00000000
   0.04001300  -0.01090900   0.00000000   0.00000000   0.00000000
   0.14160000  -0.03968300   0.00000000   0.00000000   0.00000000
   0.33920000  -0.10010000   0.00000000   0.00000000   0.00000000
   0.50000000  -0.15668000   0.00000000   0.00000000   0.00000000
   0.34642000  -0.06165500   0.00000000   0.00000000   0.00000000
   0.05894600   0.32538000   0.00000000   0.00000000   0.00000000
  -0.00401090   0.50000000   0.00000000   0.00000000   0.00000000
   0.00000000   0.00000000   1.00000000   0.00000000   0.00000000
   0.00000000   0.00000000   0.00000000   1.00000000   0.00000000
   0.00000000   0.00000000   0.00000000   0.00000000   1.00000000
* d-type functions
    9    4
         87.00800000
         25.76400000
          9.49750000
          3.72790000
          1.55600000
          0.63471000
          0.24526000
          0.08577600
          0.02803800
   0.00317850   0.00000000   0.00000000   0.00000000
   0.02334500   0.00000000   0.00000000   0.00000000
   0.09597200   0.00000000   0.00000000   0.00000000
   0.25973000   0.00000000   0.00000000   0.00000000
   0.43407000   0.00000000   0.00000000   0.00000000
   0.50000000   0.00000000   0.00000000   0.00000000
   0.00000000   1.00000000   0.00000000   0.00000000
   0.00000000   0.00000000   1.00000000   0.00000000
   0.00000000   0.00000000   0.00000000   1.00000000
* f-type functions
    3    3
          2.42600000
          0.53900000
          0.06180500
   1.00000000   0.00000000   0.00000000
   0.00000000   1.00000000   0.00000000
   0.00000000   0.00000000   1.00000000
* g-type functions
    2    2
          1.22900000
          0.07725600
   1.00000000   0.00000000
   0.00000000   1.00000000

/V.aug-pc-2.Jensen.17s12p9d3f2g.7s5p4d3f2g.
F. Jensen. J. Chem. Phys. 138 (2013) 014107. doi:10.1063/1.4773017
VANADIUM (17s,12p,9d,3f,2g) -> [7s,5p,4d,3f,2g]
    23.0   4
* s-type functions
   17    7
     750210.00000000
     112400.00000000
      25580.00000000
       7244.40000000
       2362.40000000
        851.83000000
        330.92000000
        136.18000000
         57.92500000
         23.38400000
         10.64300000
          4.70680000
          1.52950000
          0.60625000
          0.10969000
          0.04050700
          0.01393000
   7.37840e-5  -1.43740e-5   4.87080e-6   2.28420e-6   0.00000000   0.00000000   0.00000000
   0.00057320  -0.00011173   3.79580e-5   1.77890e-5   0.00000000   0.00000000   0.00000000
   0.00300490  -0.00058661   0.00019861   0.00009317   0.00000000   0.00000000   0.00000000
   0.01254500  -0.00246390   0.00083875   0.00039299   0.00000000   0.00000000   0.00000000
   0.04411500  -0.00880440   0.00298430   0.00140090   0.00000000   0.00000000   0.00000000
   0.13067000  -0.02722800   0.00934520   0.00438030   0.00000000   0.00000000   0.00000000
   0.30833000  -0.07115100   0.02446100   0.01151300   0.00000000   0.00000000   0.00000000
   0.50000000  -0.14395000   0.05152600   0.02423700   0.00000000   0.00000000   0.00000000
   0.41382000  -0.17683000   0.06539400   0.03119700   0.00000000   0.00000000   0.00000000
   0.08634800   0.06441100  -0.02485800  -0.01239600   0.00000000   0.00000000   0.00000000
  -0.00800880   0.50000000  -0.29395000  -0.14609000   0.00000000   0.00000000   0.00000000
   0.00301870   0.39488000  -0.30235000  -0.16396000   0.00000000   0.00000000   0.00000000
  -0.00099833   0.03239200   0.50000000   0.34497000   0.00000000   0.00000000   0.00000000
   0.00040235  -0.00552680   0.48354000   0.50000000   0.00000000   0.00000000   0.00000000
   0.00000000   0.00000000   0.00000000   0.00000000   1.00000000   0.00000000   0.00000000
   0.00000000   0.00000000   0.00000000   0.00000000   0.00000000   1.00000000   0.00000000
   0.00000000   0.00000000   0.00000000   0.00000000   0.00000000   0.00000000   1.00000000
* p-type functions
   12    5
       2592.00000000
        614.66000000
        198.02000000
         74.39300000
         30.78300000
         13.37200000
          5.90010000
          2.42350000
          1.00100000
          0.38440000
          0.08400000
          0.01758700
   0.00088700  -0.00024180   0.00000000   0.00000000   0.00000000
   0.00753830  -0.00206640   0.00000000   0.00000000   0.00000000
   0.03974000  -0.01102200   0.00000000   0.00000000   0.00000000
   0.14116000  -0.04031300   0.00000000   0.00000000   0.00000000
   0.33942000  -0.10206000   0.00000000   0.00000000   0.00000000
   0.50000000  -0.16003000   0.00000000   0.00000000   0.00000000
   0.34454000  -0.06048500   0.00000000   0.00000000   0.00000000
   0.05817500   0.33089000   0.00000000   0.00000000   0.00000000
  -0.00373220   0.50000000   0.00000000   0.00000000   0.00000000
   0.00000000   0.00000000   1.00000000   0.00000000   0.00000000
   0.00000000   0.00000000   0.00000000   1.00000000   0.00000000
   0.00000000   0.00000000   0.00000000   0.00000000   1.00000000
* d-type functions
    9    4
        101.08000000
         29.96800000
         11.07900000
          4.38550000
          1.84400000
          0.75732000
          0.29412000
          0.10287000
          0.03362700
   0.00313270   0.00000000   0.00000000   0.00000000
   0.02344000   0.00000000   0.00000000   0.00000000
   0.09771300   0.00000000   0.00000000   0.00000000
   0.26398000   0.00000000   0.00000000   0.00000000
   0.43965000   0.00000000   0.00000000   0.00000000
   0.50000000   0.00000000   0.00000000   0.00000000
   0.00000000   1.00000000   0.00000000   0.00000000
   0.00000000   0.00000000   1.00000000   0.00000000
   0.00000000   0.00000000   0.00000000   1.00000000
* f-type functions
    3    3
          2.66900000
          0.59300000
          0.07034800
   1.00000000   0.00000000   0.00000000
   0.00000000   1.00000000   0.00000000
   0.00000000   0.00000000   1.00000000
* g-type functions
    2    2
          1.35200000
          0.08793500
   1.00000000   0.00000000
   0.00000000   1.00000000

/Cr.aug-pc-2.Jensen.17s12p9d3f2g.7s5p4d3f2g.
F. Jensen. J. Chem. Phys. 138 (2013) 014107. doi:10.1063/1.4773017
CHROMIUM (17s,12p,9d,3f,2g) -> [7s,5p,4d,3f,2g]
    24.0   4
* s-type functions
   17    7
     807660.00000000
     120950.00000000
      27517.00000000
       7791.60000000
       2540.50000000
        915.99000000
        355.83000000
        146.41000000
         62.24800000
         24.76100000
         11.45800000
          5.13040000
          1.70190000
          0.67172000
          0.12084000
          0.04370000
          0.01473800
   7.45270e-5  -1.45680e-5   4.94250e-6   2.36800e-6   0.00000000   0.00000000   0.00000000
   0.00057936  -0.00011336   3.85660e-5   1.84640e-5   0.00000000   0.00000000   0.00000000
   0.00303820  -0.00059510   0.00020169   9.66660e-5   0.00000000   0.00000000   0.00000000
   0.01268300  -0.00250120   0.00085280   0.00040818   0.00000000   0.00000000   0.00000000
   0.04459200  -0.00893100   0.00303020   0.00145330   0.00000000   0.00000000   0.00000000
   0.13192000  -0.02763500   0.00950420   0.00455080   0.00000000   0.00000000   0.00000000
   0.31053000  -0.07206000   0.02480600   0.01193000   0.00000000   0.00000000   0.00000000
   0.50000000  -0.14565000   0.05233700   0.02515100   0.00000000   0.00000000   0.00000000
   0.40766000  -0.17544000   0.06506100   0.03173700   0.00000000   0.00000000   0.00000000
   0.08175500   0.07742000  -0.03055600  -0.01556300   0.00000000   0.00000000   0.00000000
  -0.00924120   0.50000000  -0.30075000  -0.15289000   0.00000000   0.00000000   0.00000000
   0.00339440   0.37831000  -0.28738000  -0.15970000   0.00000000   0.00000000   0.00000000
  -0.00110630   0.03013400   0.50000000   0.35169000   0.00000000   0.00000000   0.00000000
   0.00043306  -0.00487750   0.47301000   0.50000000   0.00000000   0.00000000   0.00000000
   0.00000000   0.00000000   0.00000000   0.00000000   1.00000000   0.00000000   0.00000000
   0.00000000   0.00000000   0.00000000   0.00000000   0.00000000   1.00000000   0.00000000
   0.00000000   0.00000000   0.00000000   0.00000000   0.00000000   0.00000000   1.00000000
* p-type functions
   12    5
       2851.70000000
        676.24000000
        217.95000000
         81.95000000
         33.94800000
         14.78700000
          6.55290000
          2.71060000
          1.11960000
          0.42997000
          0.09300000
          0.01928100
   0.00088268  -0.00024424   0.00000000   0.00000000   0.00000000
   0.00750860  -0.00209170   0.00000000   0.00000000   0.00000000
   0.03963700  -0.01116200   0.00000000   0.00000000   0.00000000
   0.14120000  -0.04102000   0.00000000   0.00000000   0.00000000
   0.34041000  -0.10408000   0.00000000   0.00000000   0.00000000
   0.50000000  -0.16311000   0.00000000   0.00000000   0.00000000
   0.34164000  -0.05844000   0.00000000   0.00000000   0.00000000
   0.05695000   0.33683000   0.00000000   0.00000000   0.00000000
  -0.00346300   0.50000000   0.00000000   0.00000000   0.00000000
   0.00000000   0.00000000   1.00000000   0.00000000   0.00000000
   0.00000000   0.00000000   0.00000000   1.00000000   0.00000000
   0.00000000   0.00000000   0.00000000   0.00000000   1.00000000
* d-type functions
    9    4
        113.50000000
         33.69100000
         12.50400000
          4.98610000
          2.10370000
          0.86548000
          0.33585000
          0.11682000
          0.03798900
   0.00321890   0.00000000   0.00000000   0.00000000
   0.02429400   0.00000000   0.00000000   0.00000000
   0.10131000   0.00000000   0.00000000   0.00000000
   0.27190000   0.00000000   0.00000000   0.00000000
   0.44726000   0.00000000   0.00000000   0.00000000
   0.50000000   0.00000000   0.00000000   0.00000000
   0.00000000   1.00000000   0.00000000   0.00000000
   0.00000000   0.00000000   1.00000000   0.00000000
   0.00000000   0.00000000   0.00000000   1.00000000
* f-type functions
    3    3
          2.93600000
          0.65200000
          0.07712500
   1.00000000   0.00000000   0.00000000
   0.00000000   1.00000000   0.00000000
   0.00000000   0.00000000   1.00000000
* g-type functions
    2    2
          1.48800000
          0.09640600
   1.00000000   0.00000000
   0.00000000   1.00000000

/Mn.aug-pc-2.Jensen.17s12p9d3f2g.7s5p4d3f2g.
F. Jensen. J. Chem. Phys. 138 (2013) 014107. doi:10.1063/1.4773017
MANGANESE (17s,12p,9d,3f,2g) -> [7s,5p,4d,3f,2g]
    25.0   4
* s-type functions
   17    7
     861910.00000000
     129130.00000000
      29393.00000000
       8324.90000000
       2714.80000000
        978.89000000
        380.27000000
        156.46000000
         66.49600000
         26.01200000
         12.20500000
          5.53370000
          1.87290000
          0.73615000
          0.13129000
          0.04657300
          0.01542600
   0.00007573  -1.48340e-5   5.02260e-6   2.46830e-6   0.00000000   0.00000000   0.00000000
   0.00058820  -0.00011536   3.91810e-5   1.92390e-5   0.00000000   0.00000000   0.00000000
   0.00308300  -0.00060502   0.00020463   0.00010060   0.00000000   0.00000000   0.00000000
   0.01286400  -0.00254370   0.00086592   0.00042508   0.00000000   0.00000000   0.00000000
   0.04520000  -0.00907250   0.00307170   0.00151130   0.00000000   0.00000000   0.00000000
   0.13351000  -0.02808400   0.00964710   0.00473730   0.00000000   0.00000000   0.00000000
   0.31327000  -0.07302900   0.02509600   0.01238300   0.00000000   0.00000000   0.00000000
   0.50000000  -0.14733000   0.05297200   0.02610700   0.00000000   0.00000000   0.00000000
   0.40034000  -0.17329000   0.06425600   0.03218800   0.00000000   0.00000000   0.00000000
   0.07676100   0.09365200  -0.03781500  -0.01977200   0.00000000   0.00000000   0.00000000
  -0.01043200   0.50000000  -0.30744000  -0.16044000   0.00000000   0.00000000   0.00000000
   0.00378250   0.35806000  -0.26764000  -0.15334000   0.00000000   0.00000000   0.00000000
  -0.00121790   0.02735700   0.50000000   0.36075000   0.00000000   0.00000000   0.00000000
   0.00046295  -0.00419830   0.45926000   0.50000000   0.00000000   0.00000000   0.00000000
   0.00000000   0.00000000   0.00000000   0.00000000   1.00000000   0.00000000   0.00000000
   0.00000000   0.00000000   0.00000000   0.00000000   0.00000000   1.00000000   0.00000000
   0.00000000   0.00000000   0.00000000   0.00000000   0.00000000   0.00000000   1.00000000
* p-type functions
   12    5
       3118.10000000
        739.46000000
        238.38000000
         89.67700000
         37.17900000
         16.23400000
          7.22350000
          3.00540000
          1.24070000
          0.47623000
          0.10400000
          0.02176100
   0.00088145  -0.00024702   0.00000000   0.00000000   0.00000000
   0.00750430  -0.00211970   0.00000000   0.00000000   0.00000000
   0.03966900  -0.01131800   0.00000000   0.00000000   0.00000000
   0.14169000  -0.04177800   0.00000000   0.00000000   0.00000000
   0.34206000  -0.10610000   0.00000000   0.00000000   0.00000000
   0.50000000  -0.16584000   0.00000000   0.00000000   0.00000000
   0.33811000  -0.05570600   0.00000000   0.00000000   0.00000000
   0.05549300   0.34269000   0.00000000   0.00000000   0.00000000
  -0.00323150   0.50000000   0.00000000   0.00000000   0.00000000
   0.00000000   0.00000000   1.00000000   0.00000000   0.00000000
   0.00000000   0.00000000   0.00000000   1.00000000   0.00000000
   0.00000000   0.00000000   0.00000000   0.00000000   1.00000000
* d-type functions
    9    4
        128.60000000
         38.20300000
         14.22100000
          5.70840000
          2.42130000
          1.00110000
          0.39050000
          0.13618000
          0.04439700
   0.00318970   0.00000000   0.00000000   0.00000000
   0.02438300   0.00000000   0.00000000   0.00000000
   0.10241000   0.00000000   0.00000000   0.00000000
   0.27473000   0.00000000   0.00000000   0.00000000
   0.45063000   0.00000000   0.00000000   0.00000000
   0.50000000   0.00000000   0.00000000   0.00000000
   0.00000000   1.00000000   0.00000000   0.00000000
   0.00000000   0.00000000   1.00000000   0.00000000
   0.00000000   0.00000000   0.00000000   1.00000000
* f-type functions
    3    3
          3.23000000
          0.71800000
          0.08704600
   1.00000000   0.00000000   0.00000000
   0.00000000   1.00000000   0.00000000
   0.00000000   0.00000000   1.00000000
* g-type functions
    2    2
          1.63600000
          0.10881000
   1.00000000   0.00000000
   0.00000000   1.00000000

/Fe.aug-pc-2.Jensen.17s12p9d3f2g.7s5p4d3f2g.
F. Jensen. J. Chem. Phys. 138 (2013) 014107. doi:10.1063/1.4773017
IRON (17s,12p,9d,3f,2g) -> [7s,5p,4d,3f,2g]
    26.0   4
* s-type functions
   17    7
     921560.00000000
     138060.00000000
      31420.00000000
       8896.90000000
       2901.00000000
       1046.00000000
        406.37000000
        167.20000000
         71.06500000
         27.42600000
         12.98500000
          5.94800000
          2.05370000
          0.80626000
          0.14100000
          0.04938100
          0.01616300
   7.65720e-5  -1.50170e-5   5.08430e-6   2.55970e-6   0.00000000   0.00000000   0.00000000
   0.00059481  -0.00011684   3.96830e-5   0.00001996   0.00000000   0.00000000   0.00000000
   0.00311860  -0.00061271   0.00020720   0.00010436   0.00000000   0.00000000   0.00000000
   0.01301300  -0.00257780   0.00087764   0.00044129   0.00000000   0.00000000   0.00000000
   0.04570900  -0.00918700   0.00311010   0.00156780   0.00000000   0.00000000   0.00000000
   0.13483000  -0.02844900   0.00977680   0.00491730   0.00000000   0.00000000   0.00000000
   0.31555000  -0.07380700   0.02537100   0.01282900   0.00000000   0.00000000   0.00000000
   0.50000000  -0.14868000   0.05356000   0.02703500   0.00000000   0.00000000   0.00000000
   0.39443000  -0.17136000   0.06366700   0.03271500   0.00000000   0.00000000   0.00000000
   0.07298500   0.10816000  -0.04467400  -0.02398100   0.00000000   0.00000000   0.00000000
  -0.01130400   0.50000000  -0.31381000  -0.16791000   0.00000000   0.00000000   0.00000000
   0.00410450   0.33969000  -0.25027000  -0.14774000   0.00000000   0.00000000   0.00000000
  -0.00131570   0.02490900   0.50000000   0.37030000   0.00000000   0.00000000   0.00000000
   0.00048591  -0.00360660   0.44820000   0.50000000   0.00000000   0.00000000   0.00000000
   0.00000000   0.00000000   0.00000000   0.00000000   1.00000000   0.00000000   0.00000000
   0.00000000   0.00000000   0.00000000   0.00000000   0.00000000   1.00000000   0.00000000
   0.00000000   0.00000000   0.00000000   0.00000000   0.00000000   0.00000000   1.00000000
* p-type functions
   12    5
       3416.50000000
        810.19000000
        261.29000000
         98.39100000
         40.83900000
         17.87000000
          7.97690000
          3.33910000
          1.38050000
          0.52998000
          0.11500000
          0.02391600
   0.00087163  -0.00024645   0.00000000   0.00000000   0.00000000
   0.00742830  -0.00211840   0.00000000   0.00000000   0.00000000
   0.03932200  -0.01132200   0.00000000   0.00000000   0.00000000
   0.14088000  -0.04196500   0.00000000   0.00000000   0.00000000
   0.34152000  -0.10701000   0.00000000   0.00000000   0.00000000
   0.50000000  -0.16777000   0.00000000   0.00000000   0.00000000
   0.33771000  -0.05534400   0.00000000   0.00000000   0.00000000
   0.05545400   0.34349000   0.00000000   0.00000000   0.00000000
  -0.00305560   0.50000000   0.00000000   0.00000000   0.00000000
   0.00000000   0.00000000   1.00000000   0.00000000   0.00000000
   0.00000000   0.00000000   0.00000000   1.00000000   0.00000000
   0.00000000   0.00000000   0.00000000   0.00000000   1.00000000
* d-type functions
    9    4
        137.52000000
         40.86600000
         15.24800000
          6.14180000
          2.59780000
          1.06700000
          0.41051000
          0.14023000
          0.04484000
   0.00350290   0.00000000   0.00000000   0.00000000
   0.02673700   0.00000000   0.00000000   0.00000000
   0.11096000   0.00000000   0.00000000   0.00000000
   0.29196000   0.00000000   0.00000000   0.00000000
   0.46428000   0.00000000   0.00000000   0.00000000
   0.50000000   0.00000000   0.00000000   0.00000000
   0.00000000   1.00000000   0.00000000   0.00000000
   0.00000000   0.00000000   1.00000000   0.00000000
   0.00000000   0.00000000   0.00000000   1.00000000
* f-type functions
    3    3
          3.55300000
          0.78900000
          0.09566300
   1.00000000   0.00000000   0.00000000
   0.00000000   1.00000000   0.00000000
   0.00000000   0.00000000   1.00000000
* g-type functions
    2    2
          1.80000000
          0.11958000
   1.00000000   0.00000000
   0.00000000   1.00000000

/Co.aug-pc-2.Jensen.17s12p9d3f2g.7s5p4d3f2g.
F. Jensen. J. Chem. Phys. 138 (2013) 014107. doi:10.1063/1.4773017
COBALT (17s,12p,9d,3f,2g) -> [7s,5p,4d,3f,2g]
    27.0   4
* s-type functions
   17    7
     967560.00000000
     144920.00000000
      32982.00000000
       9340.60000000
       3045.80000000
       1098.40000000
        426.93000000
        175.85000000
         74.85100000
         28.37100000
         13.52400000
          6.27210000
          2.22770000
          0.87368000
          0.15030000
          0.05186700
          0.01674300
   7.88140e-5  -1.54490e-5   5.21500e-6   2.71700e-6   0.00000000   0.00000000   0.00000000
   0.00061231  -0.00012027   4.07280e-5   2.11970e-5   0.00000000   0.00000000   0.00000000
   0.00320940  -0.00063016   0.00021247   0.00011075   0.00000000   0.00000000   0.00000000
   0.01338500  -0.00265250   0.00090045   0.00046846   0.00000000   0.00000000   0.00000000
   0.04696700  -0.00943850   0.00318600   0.00166220   0.00000000   0.00000000   0.00000000
   0.13808000  -0.02921400   0.01001400   0.00521090   0.00000000   0.00000000   0.00000000
   0.32080000  -0.07531500   0.02583300   0.01352200   0.00000000   0.00000000   0.00000000
   0.50000000  -0.15066000   0.05423800   0.02832400   0.00000000   0.00000000   0.00000000
   0.38302000  -0.16697000   0.06205900   0.03305500   0.00000000   0.00000000   0.00000000
   0.06670400   0.13247000  -0.05640500  -0.03135300   0.00000000   0.00000000   0.00000000
  -0.01204300   0.50000000  -0.32171000  -0.17837000   0.00000000   0.00000000   0.00000000
   0.00443770   0.31104000  -0.22270000  -0.13736000   0.00000000   0.00000000   0.00000000
  -0.00142640   0.02120200   0.50000000   0.38420000   0.00000000   0.00000000   0.00000000
   0.00050811  -0.00281560   0.43239000   0.50000000   0.00000000   0.00000000   0.00000000
   0.00000000   0.00000000   0.00000000   0.00000000   1.00000000   0.00000000   0.00000000
   0.00000000   0.00000000   0.00000000   0.00000000   0.00000000   1.00000000   0.00000000
   0.00000000   0.00000000   0.00000000   0.00000000   0.00000000   0.00000000   1.00000000
* p-type functions
   12    5
       3719.20000000
        881.83000000
        284.44000000
        107.17000000
         44.52400000
         19.52100000
          8.74030000
          3.67760000
          1.52150000
          0.58405000
          0.12700000
          0.02646500
   0.00086636  -0.00024710   0.00000000   0.00000000   0.00000000
   0.00739170  -0.00212800   0.00000000   0.00000000   0.00000000
   0.03918600  -0.01138400   0.00000000   0.00000000   0.00000000
   0.14074000  -0.04234900   0.00000000   0.00000000   0.00000000
   0.34198000  -0.10822000   0.00000000   0.00000000   0.00000000
   0.50000000  -0.16969000   0.00000000   0.00000000   0.00000000
   0.33602000  -0.05396300   0.00000000   0.00000000   0.00000000
   0.05485600   0.34573000   0.00000000   0.00000000   0.00000000
  -0.00288470   0.50000000   0.00000000   0.00000000   0.00000000
   0.00000000   0.00000000   1.00000000   0.00000000   0.00000000
   0.00000000   0.00000000   0.00000000   1.00000000   0.00000000
   0.00000000   0.00000000   0.00000000   0.00000000   1.00000000
* d-type functions
    9    4
        152.58000000
         45.36500000
         16.95000000
          6.85390000
          2.90590000
          1.19520000
          0.45954000
          0.15661000
          0.04996600
   0.00351620   0.00000000   0.00000000   0.00000000
   0.02707900   0.00000000   0.00000000   0.00000000
   0.11311000   0.00000000   0.00000000   0.00000000
   0.29625000   0.00000000   0.00000000   0.00000000
   0.46795000   0.00000000   0.00000000   0.00000000
   0.50000000   0.00000000   0.00000000   0.00000000
   0.00000000   1.00000000   0.00000000   0.00000000
   0.00000000   0.00000000   1.00000000   0.00000000
   0.00000000   0.00000000   0.00000000   1.00000000
* f-type functions
    3    3
          3.90800000
          0.86800000
          0.10586000
   1.00000000   0.00000000   0.00000000
   0.00000000   1.00000000   0.00000000
   0.00000000   0.00000000   1.00000000
* g-type functions
    2    2
          1.98000000
          0.13232000
   1.00000000   0.00000000
   0.00000000   1.00000000

/Ni.aug-pc-2.Jensen.17s12p9d3f2g.7s5p4d3f2g.
F. Jensen. J. Chem. Phys. 138 (2013) 014107. doi:10.1063/1.4773017
NICKEL (17s,12p,9d,3f,2g) -> [7s,5p,4d,3f,2g]
    28.0   4
* s-type functions
   17    7
    1047900.00000000
     156980.00000000
      35722.00000000
      10116.00000000
       3299.40000000
       1190.00000000
        462.38000000
        190.28000000
         80.89800000
         30.55800000
         14.58600000
          6.78100000
          2.42310000
          0.94839000
          0.16016000
          0.05452200
          0.01737700
   7.80940e-5  -1.53150e-5   5.18160e-6   2.73400e-6   0.00000000   0.00000000   0.00000000
   0.00060668  -0.00011922   0.00004047   0.00002133   0.00000000   0.00000000   0.00000000
   0.00318080  -0.00062481   0.00021115   0.00011147   0.00000000   0.00000000   0.00000000
   0.01326400  -0.00262980   0.00089493   0.00047147   0.00000000   0.00000000   0.00000000
   0.04654300  -0.00935630   0.00316540   0.00167270   0.00000000   0.00000000   0.00000000
   0.13699000  -0.02899000   0.00996280   0.00524960   0.00000000   0.00000000   0.00000000
   0.31927000  -0.07494400   0.02576600   0.01366100   0.00000000   0.00000000   0.00000000
   0.50000000  -0.15064000   0.05440100   0.02876500   0.00000000   0.00000000   0.00000000
   0.38474000  -0.16762000   0.06249100   0.03372900   0.00000000   0.00000000   0.00000000
   0.06712000   0.13477000  -0.05778100  -0.03260100   0.00000000   0.00000000   0.00000000
  -0.01240900   0.50000000  -0.32536000  -0.18261000   0.00000000   0.00000000   0.00000000
   0.00459510   0.30505000  -0.21534000  -0.13490000   0.00000000   0.00000000   0.00000000
  -0.00147450   0.02027700   0.50000000   0.38887000   0.00000000   0.00000000   0.00000000
[...]
         83.17600000
         36.90700000
         16.82100000
          7.55330000
          3.36450000
          1.42320000
          0.50069000
          0.18003000
          0.05870500
          0.01797000
   0.00060587  -0.00017517   9.99920e-5   0.00000000   0.00000000   0.00000000
   0.00525150  -0.00152160   0.00086854   0.00000000   0.00000000   0.00000000
   0.02852300  -0.00837760   0.00478990   0.00000000   0.00000000   0.00000000
   0.10755000  -0.03233600   0.01852800   0.00000000   0.00000000   0.00000000
   0.28906000  -0.09166100   0.05283000   0.00000000   0.00000000   0.00000000
   0.50000000  -0.16903000   0.09811000   0.00000000   0.00000000   0.00000000
   0.44437000  -0.13023000   0.07419100   0.00000000   0.00000000   0.00000000
   0.12756000   0.20384000  -0.14301000   0.00000000   0.00000000   0.00000000
  -5.52710e-5   0.50000000  -0.36471000   0.00000000   0.00000000   0.00000000
   0.00160730   0.35330000  -0.25920000   0.00000000   0.00000000   0.00000000
  -0.00064088   0.04690600   0.50000000   0.00000000   0.00000000   0.00000000
   0.00000000   0.00000000   0.00000000   1.00000000   0.00000000   0.00000000
   0.00000000   0.00000000   0.00000000   0.00000000   1.00000000   0.00000000
   0.00000000   0.00000000   0.00000000   0.00000000   0.00000000   1.00000000
* d-type functions
   10    4
        279.75000000
         83.40900000
         31.37700000
         13.01900000
          5.71500000
          2.46650000
          1.01590000
          0.38206000
          0.14100000
          0.04846000
   0.00260100   0.00000000   0.00000000   0.00000000
   0.02149000   0.00000000   0.00000000   0.00000000
   0.09731500   0.00000000   0.00000000   0.00000000
   0.26600000   0.00000000   0.00000000   0.00000000
   0.45028000   0.00000000   0.00000000   0.00000000
   0.50000000   0.00000000   0.00000000   0.00000000
   0.36739000   0.00000000   0.00000000   0.00000000
   0.00000000   1.00000000   0.00000000   0.00000000
   0.00000000   0.00000000   1.00000000   0.00000000
   0.00000000   0.00000000   0.00000000   1.00000000
* f-type functions
    2    2
          0.40000000
          0.07188100
   1.00000000   0.00000000
   0.00000000   1.00000000

/As.aug-pc-2.Jensen.17s14p10d2f.7s6p4d2f.
F. Jensen. J. Chem. Phys. 136 (2012) 114107. doi:10.1063/1.3690460
ARSENIC (17s,14p,10d,2f) -> [7s,6p,4d,2f]
    33.0   3
* s-type functions
   17    7
    1535000.00000000
     229890.00000000
      52312.00000000
      14816.00000000
       4832.10000000
       1742.80000000
        677.43000000
        279.00000000
        118.94000000
         46.62000000
         22.33800000
         10.39200000
          3.75840000
          1.54690000
          0.33257000
          0.12133000
          0.04125300
   7.40730e-5  -1.47340e-5   5.36180e-6   2.50120e-6   0.00000000   0.00000000   0.00000000
   0.00057566  -0.00011465   4.18570e-5   1.94930e-5   0.00000000   0.00000000   0.00000000
   0.00301820  -0.00060153   0.00021864   0.00010208   0.00000000   0.00000000   0.00000000
   0.01259600  -0.00252920   0.00092569   0.00043079   0.00000000   0.00000000   0.00000000
   0.04429600  -0.00903050   0.00328620   0.00153620   0.00000000   0.00000000   0.00000000
   0.13122000  -0.02804300   0.01036500   0.00482340   0.00000000   0.00000000   0.00000000
   0.30997000  -0.07345000   0.02717000   0.01275500   0.00000000   0.00000000   0.00000000
   0.50000000  -0.15013000   0.05833200   0.02723600   0.00000000   0.00000000   0.00000000
   0.40581000  -0.17840000   0.07168800   0.03439400   0.00000000   0.00000000   0.00000000
   0.07972300   0.10091000  -0.04536000  -0.02344600   0.00000000   0.00000000   0.00000000
  -0.01185800   0.50000000  -0.34571000  -0.17151000   0.00000000   0.00000000   0.00000000
   0.00450490   0.33801000  -0.26130000  -0.14852000   0.00000000   0.00000000   0.00000000
  -0.00154220   0.02591300   0.50000000   0.36369000   0.00000000   0.00000000   0.00000000
   0.00060285  -0.00363720   0.47938000   0.50000000   0.00000000   0.00000000   0.00000000
   0.00000000   0.00000000   0.00000000   0.00000000   1.00000000   0.00000000   0.00000000
   0.00000000   0.00000000   0.00000000   0.00000000   0.00000000   1.00000000   0.00000000
   0.00000000   0.00000000   0.00000000   0.00000000   0.00000000   0.00000000   1.00000000
* p-type functions
   14    6
       7303.80000000
       1730.70000000
        559.20000000
        212.78000000
         89.23500000
         39.64100000
         18.09800000
          8.14650000
          3.63520000
          1.54930000
          0.53099000
          0.20264000
          0.06920800
          0.02212500
   0.00060213  -0.00017406   8.47580e-5   0.00000000   0.00000000   0.00000000
   0.00521820  -0.00151220   0.00073819   0.00000000   0.00000000   0.00000000
   0.02835700  -0.00832850   0.00406240   0.00000000   0.00000000   0.00000000
   0.10718000  -0.03224100   0.01580500   0.00000000   0.00000000   0.00000000
   0.28869000  -0.09159200   0.04504200   0.00000000   0.00000000   0.00000000
   0.50000000  -0.16927000   0.08425100   0.00000000   0.00000000   0.00000000
   0.44462000  -0.13020000   0.06272900   0.00000000   0.00000000   0.00000000
   0.12773000   0.20434000  -0.12247000   0.00000000   0.00000000   0.00000000
   7.98430e-6   0.50000000  -0.32094000   0.00000000   0.00000000   0.00000000
   0.00158020   0.34378000  -0.20148000   0.00000000   0.00000000   0.00000000
  -0.00064409   0.04140200   0.50000000   0.00000000   0.00000000   0.00000000
   0.00000000   0.00000000   0.00000000   1.00000000   0.00000000   0.00000000
   0.00000000   0.00000000   0.00000000   0.00000000   1.00000000   0.00000000
   0.00000000   0.00000000   0.00000000   0.00000000   0.00000000   1.00000000
* d-type functions
   10    4
        310.13000000
         92.53800000
         34.87900000
         14.54000000
          6.42010000
          2.79860000
          1.17200000
          0.45307000
          0.16800000
          0.05799400
   0.00249310   0.00000000   0.00000000   0.00000000
   0.02079000   0.00000000   0.00000000   0.00000000
   0.09511400   0.00000000   0.00000000   0.00000000
   0.26232000   0.00000000   0.00000000   0.00000000
   0.44917000   0.00000000   0.00000000   0.00000000
   0.50000000   0.00000000   0.00000000   0.00000000
   0.35016000   0.00000000   0.00000000   0.00000000
   0.00000000   1.00000000   0.00000000   0.00000000
   0.00000000   0.00000000   1.00000000   0.00000000
   0.00000000   0.00000000   0.00000000   1.00000000
* f-type functions
    2    2
          0.44000000
          0.08850200
   1.00000000   0.00000000
   0.00000000   1.00000000

/Se.aug-pc-2.Jensen.17s14p10d2f.7s6p4d2f.
F. Jensen. J. Chem. Phys. 136 (2012) 114107. doi:10.1063/1.3690460
SELENIUM (17s,14p,10d,2f) -> [7s,6p,4d,2f]
    34.0   3
* s-type functions
   17    7
    1662000.00000000
     248990.00000000
      56665.00000000
      16047.00000000
       5232.80000000
       1886.80000000
        733.31000000
        302.02000000
        128.85000000
         51.21300000
         24.46900000
         11.35200000
          4.09880000
          1.71480000
          0.39038000
          0.14362000
          0.04921900
   7.26530e-5  -1.45160e-5   5.37450e-6   2.42100e-6   0.00000000   0.00000000   0.00000000
   0.00056443  -0.00011288   4.19290e-5   1.88540e-5   0.00000000   0.00000000   0.00000000
   0.00295950  -0.00059248   0.00021912   9.87850e-5   0.00000000   0.00000000   0.00000000
   0.01235700  -0.00249090   0.00092757   0.00041679   0.00000000   0.00000000   0.00000000
   0.04350400  -0.00890690   0.00329790   0.00148880   0.00000000   0.00000000   0.00000000
   0.12921000  -0.02768300   0.01041000   0.00467720   0.00000000   0.00000000   0.00000000
   0.30668000  -0.07283000   0.02740800   0.01242700   0.00000000   0.00000000   0.00000000
   0.50000000  -0.14964000   0.05912900   0.02665900   0.00000000   0.00000000   0.00000000
   0.41397000  -0.18215000   0.07443700   0.03451300   0.00000000   0.00000000   0.00000000
   0.08510600   0.08682200  -0.03893200  -0.01970200   0.00000000   0.00000000   0.00000000
  -0.01127400   0.50000000  -0.34847000  -0.16713000   0.00000000   0.00000000   0.00000000
   0.00435410   0.35410000  -0.28190000  -0.15530000   0.00000000   0.00000000   0.00000000
  -0.00152520   0.02871300   0.50000000   0.35795000   0.00000000   0.00000000   0.00000000
   0.00061870  -0.00421920   0.49604000   0.50000000   0.00000000   0.00000000   0.00000000
   0.00000000   0.00000000   0.00000000   0.00000000   1.00000000   0.00000000   0.00000000
   0.00000000   0.00000000   0.00000000   0.00000000   0.00000000   1.00000000   0.00000000
   0.00000000   0.00000000   0.00000000   0.00000000   0.00000000   0.00000000   1.00000000
* p-type functions
   14    6
       7854.10000000
       1861.00000000
        601.30000000
        228.89000000
         96.05000000
         42.72400000
         19.54700000
          8.83450000
          3.95970000
          1.70590000
          0.58864000
          0.22781000
          0.07876400
          0.02547100
   0.00059412  -0.00017210   7.64350e-5   0.00000000   0.00000000   0.00000000
   0.00515410  -0.00149680   0.00066800   0.00000000   0.00000000   0.00000000
   0.02804500  -0.00825400   0.00367240   0.00000000   0.00000000   0.00000000
   0.10628000  -0.03204100   0.01436600   0.00000000   0.00000000   0.00000000
   0.28734000  -0.09137800   0.04099400   0.00000000   0.00000000   0.00000000
   0.50000000  -0.16976000   0.07745800   0.00000000   0.00000000   0.00000000
   0.44769000  -0.13221000   0.05768700   0.00000000   0.00000000   0.00000000
   0.13059000   0.20117000  -0.11035000   0.00000000   0.00000000   0.00000000
   0.00031098   0.50000000  -0.30138000   0.00000000   0.00000000   0.00000000
   0.00158140   0.33962000  -0.17195000   0.00000000   0.00000000   0.00000000
  -0.00064798   0.03909100   0.50000000   0.00000000   0.00000000   0.00000000
   0.00000000   0.00000000   0.00000000   1.00000000   0.00000000   0.00000000
   0.00000000   0.00000000   0.00000000   0.00000000   1.00000000   0.00000000
   0.00000000   0.00000000   0.00000000   0.00000000   0.00000000   1.00000000
* d-type functions
   10    4
        359.94000000
        107.41000000
         40.56900000
         17.06800000
          7.63050000
          3.38570000
          1.45260000
          0.57800000
          0.21400000
          0.07377000
   0.00215770   0.00000000   0.00000000   0.00000000
   0.01835300   0.00000000   0.00000000   0.00000000
   0.08607100   0.00000000   0.00000000   0.00000000
   0.24257000   0.00000000   0.00000000   0.00000000
   0.43330000   0.00000000   0.00000000   0.00000000
   0.50000000   0.00000000   0.00000000   0.00000000
   0.35773000   0.00000000   0.00000000   0.00000000
   0.00000000   1.00000000   0.00000000   0.00000000
   0.00000000   0.00000000   1.00000000   0.00000000
   0.00000000   0.00000000   0.00000000   1.00000000
* f-type functions
    2    2
          0.48000000
          0.10188000
   1.00000000   0.00000000
   0.00000000   1.00000000

/Br.aug-pc-2.Jensen.17s14p10d2f.7s6p4d2f.
F. Jensen. J. Chem. Phys. 136 (2012) 114107. doi:10.1063/1.3690460
BROMINE (17s,14p,10d,2f) -> [7s,6p,4d,2f]
    35.0   3
* s-type functions
   17    7
    1793000.00000000
     268590.00000000
      61122.00000000
      17307.00000000
       5643.20000000
       2035.00000000
        791.15000000
        326.04000000
        139.28000000
         56.17200000
         26.71800000
         12.36000000
          4.46110000
          1.89410000
          0.45120000
          0.16695000
          0.05751900
   7.14960e-5  -1.43460e-5   5.26120e-6   2.35290e-6   0.00000000   0.00000000   0.00000000
   0.00055550  -0.00011153   4.10360e-5   1.83190e-5   0.00000000   0.00000000   0.00000000
   0.00291310  -0.00058574   0.00021457   9.60460e-5   0.00000000   0.00000000   0.00000000
   0.01216900  -0.00246210   0.00090811   0.00040509   0.00000000   0.00000000   0.00000000
   0.04286800  -0.00881350   0.00323240   0.00144890   0.00000000   0.00000000   0.00000000
   0.12753000  -0.02739600   0.01020300   0.00455100   0.00000000   0.00000000   0.00000000
   0.30383000  -0.07231900   0.02695600   0.01213600   0.00000000   0.00000000   0.00000000
   0.50000000  -0.14921000   0.05836700   0.02612800   0.00000000   0.00000000   0.00000000
   0.42180000  -0.18567000   0.07513100   0.03460600   0.00000000   0.00000000   0.00000000
   0.09071800   0.07332100  -0.03184100  -0.01626700   0.00000000   0.00000000   0.00000000
  -0.01045900   0.50000000  -0.34198000  -0.16305000   0.00000000   0.00000000   0.00000000
   0.00414670   0.37002000  -0.29508000  -0.16187000   0.00000000   0.00000000   0.00000000
  -0.00148680   0.03158900   0.48710000   0.35236000   0.00000000   0.00000000   0.00000000
   0.00062209  -0.00480090   0.50000000   0.50000000   0.00000000   0.00000000   0.00000000
   0.00000000   0.00000000   0.00000000   0.00000000   1.00000000   0.00000000   0.00000000
   0.00000000   0.00000000   0.00000000   0.00000000   0.00000000   1.00000000   0.00000000
   0.00000000   0.00000000   0.00000000   0.00000000   0.00000000   0.00000000   1.00000000
* p-type functions
   14    6
       8522.20000000
       2019.20000000
        652.66000000
        248.63000000
        104.41000000
         46.50300000
         21.32700000
          9.69740000
          4.37520000
          1.90860000
          0.67854000
          0.26568000
          0.09259600
          0.03016900
   0.00057817  -0.00016793   7.51450e-5   0.00000000   0.00000000   0.00000000
   0.00502120  -0.00146170   0.00065736   0.00000000   0.00000000   0.00000000
   0.02735800  -0.00807260   0.00361900   0.00000000   0.00000000   0.00000000
   0.10414000  -0.03145900   0.01421700   0.00000000   0.00000000   0.00000000
   0.28379000  -0.09043900   0.04089700   0.00000000   0.00000000   0.00000000
   0.50000000  -0.17011000   0.07830200   0.00000000   0.00000000   0.00000000
   0.45662000  -0.13777000   0.06076900   0.00000000   0.00000000   0.00000000
   0.13865000   0.19096000  -0.10689000   0.00000000   0.00000000   0.00000000
   0.00116200   0.50000000  -0.30804000   0.00000000   0.00000000   0.00000000
   0.00159240   0.34477000  -0.17612000   0.00000000   0.00000000   0.00000000
  -0.00066766   0.04082200   0.50000000   0.00000000   0.00000000   0.00000000
   0.00000000   0.00000000   0.00000000   1.00000000   0.00000000   0.00000000
   0.00000000   0.00000000   0.00000000   0.00000000   1.00000000   0.00000000
   0.00000000   0.00000000   0.00000000   0.00000000   0.00000000   1.00000000
* d-type functions
   10    4
        400.32000000
        119.53000000
         45.23600000
         19.13200000
          8.60600000
          3.85540000
          1.67750000
          0.68030000
          0.25200000
          0.08690800
   0.00202440   0.00000000   0.00000000   0.00000000
   0.01738600   0.00000000   0.00000000   0.00000000
   0.08247700   0.00000000   0.00000000   0.00000000
   0.23514000   0.00000000   0.00000000   0.00000000
   0.42786000   0.00000000   0.00000000   0.00000000
   0.50000000   0.00000000   0.00000000   0.00000000
   0.35240000   0.00000000   0.00000000   0.00000000
   0.00000000   1.00000000   0.00000000   0.00000000
   0.00000000   0.00000000   1.00000000   0.00000000
   0.00000000   0.00000000   0.00000000   1.00000000
* f-type functions
    2    2
          0.53000000
          0.12067000
   1.00000000   0.00000000
   0.00000000   1.00000000

/Kr.aug-pc-2.Jensen.17s14p10d2f.7s6p4d2f.
F. Jensen. J. Chem. Phys. 136 (2012) 114107. doi:10.1063/1.3690460
KRYPTON (17s,14p,10d,2f) -> [7s,6p,4d,2f]
    36.0   3
* s-type functions
   17    7
    1931600.00000000
     289380.00000000
      65857.00000000
      18650.00000000
       6081.80000000
       2193.20000000
        852.72000000
        351.46000000
        150.29000000
         61.40000000
         29.04400000
         13.39900000
          4.83580000
          2.08130000
          0.51538000
          0.19103000
          0.06591700
   7.03170e-5  -0.00001417   5.12140e-6   2.29130e-6   0.00000000   0.00000000   0.00000000
   0.00054633  -0.00011013   3.99320e-5   1.78320e-5   0.00000000   0.00000000   0.00000000
   0.00286470  -0.00057853   0.00020886   9.35270e-5   0.00000000   0.00000000   0.00000000
   0.01196800  -0.00243060   0.00088344   0.00039423   0.00000000   0.00000000   0.00000000
   0.04218300  -0.00870890   0.00314780   0.00141150   0.00000000   0.00000000   0.00000000
   0.12575000  -0.02708400   0.00993880   0.00443490   0.00000000   0.00000000   0.00000000
   0.30088000  -0.07177300   0.02636200   0.01187500   0.00000000   0.00000000   0.00000000
   0.50000000  -0.14879000   0.05732600   0.02567500   0.00000000   0.00000000   0.00000000
   0.42959000  -0.18905000   0.07536000   0.03473800   0.00000000   0.00000000   0.00000000
   0.09648700   0.06098400  -0.02540400  -0.01324700   0.00000000   0.00000000   0.00000000
  -0.00959750   0.50000000  -0.33433000  -0.15973000   0.00000000   0.00000000   0.00000000
   0.00394480   0.38479000  -0.30505000  -0.16782000   0.00000000   0.00000000   0.00000000
  -0.00144810   0.03436400   0.47351000   0.34840000   0.00000000   0.00000000   0.00000000
   0.00062296  -0.00538290   0.50000000   0.50000000   0.00000000   0.00000000   0.00000000
   0.00000000   0.00000000   0.00000000   0.00000000   1.00000000   0.00000000   0.00000000
   0.00000000   0.00000000   0.00000000   0.00000000   0.00000000   1.00000000   0.00000000
   0.00000000   0.00000000   0.00000000   0.00000000   0.00000000   0.00000000   1.00000000
* p-type functions
   14    6
       9221.40000000
       2184.70000000
        706.27000000
        269.18000000
        113.10000000
         50.43300000
         23.18200000
         10.60100000
          4.81130000
          2.12210000
          0.77418000
          0.30650000
          0.10776000
          0.03539600
   0.00056343  -0.00016402   7.42450e-5   0.00000000   0.00000000   0.00000000
   0.00489870  -0.00142890   0.00064993   0.00000000   0.00000000   0.00000000
   0.02673800  -0.00790660   0.00358590   0.00000000   0.00000000   0.00000000
   0.10223000  -0.03093500   0.01414200   0.00000000   0.00000000   0.00000000
   0.28061000  -0.08958400   0.04100200   0.00000000   0.00000000   0.00000000
   0.50000000  -0.17041000   0.07939100   0.00000000   0.00000000   0.00000000
   0.46488000  -0.14282000   0.06400400   0.00000000   0.00000000   0.00000000
   0.14642000   0.18152000  -0.10424000   0.00000000   0.00000000   0.00000000
   0.00207920   0.50000000  -0.31511000   0.00000000   0.00000000   0.00000000
   0.00158730   0.34916000  -0.18150000   0.00000000   0.00000000   0.00000000
  -0.00068042   0.04240600   0.50000000   0.00000000   0.00000000   0.00000000
   0.00000000   0.00000000   0.00000000   1.00000000   0.00000000   0.00000000
   0.00000000   0.00000000   0.00000000   0.00000000   1.00000000   0.00000000
   0.00000000   0.00000000   0.00000000   0.00000000   0.00000000   1.00000000
* d-type functions
   10    4
        456.33000000
        136.35000000
         51.76200000
         22.08000000
         10.02200000
          4.54760000
          2.01280000
          0.83098000
          0.30800000
          0.10628000
   0.00179480   0.00000000   0.00000000   0.00000000
   0.01561800   0.00000000   0.00000000   0.00000000
   0.07531700   0.00000000   0.00000000   0.00000000
   0.21877000   0.00000000   0.00000000   0.00000000
   0.41334000   0.00000000   0.00000000   0.00000000
   0.50000000   0.00000000   0.00000000   0.00000000
   0.36311000   0.00000000   0.00000000   0.00000000
   0.00000000   1.00000000   0.00000000   0.00000000
   0.00000000   0.00000000   1.00000000   0.00000000
   0.00000000   0.00000000   0.00000000   1.00000000
* f-type functions
    2    2
          0.59000000
          0.14158000
   1.00000000   0.00000000
   0.00000000   1.00000000
