************************************************************************
* This file is part of OpenMolcas.                                     *
*                                                                      *
* OpenMolcas is free software; you can redistribute it and/or modify   *
* it under the terms of the GNU Lesser General Public License, v. 2.1. *
* OpenMolcas is distributed in the hope that it will be useful, but it *
* is provided "as is" and without any express or implied warranties.   *
* For more details see the full text of the license in the file        *
* LICENSE or in <http://www.gnu.org/licenses/>.                        *
************************************************************************

#Hamiltonian NRH
#Nucleus UNK
#Contraction CCC
#AllElectron AE_

************************************************************************
* This file has been generated from Basis Set Exchange data:           *
*   https://www.basissetexchange.org                                   *
* Version: 1  (Data from ccRepo/Grant Hill)                            *
************************************************************************

/H.aug-cc-pVQZ.Kendall.7s4p3d2f.5s4p3d2f.
R.A. Kendall, T.H. Dunning, R.J. Harrison. J. Chem. Phys. 96 (1992) 6796-6806. doi:10.1063/1.462569
HYDROGEN (7s,4p,3d,2f) -> [5s,4p,3d,2f]
     1.0   3
* s-type functions
    7    5
         82.64000000
         12.41000000
          2.82400000
          0.79770000
          0.25810000
          0.08989000
          0.02363000
  0.0020060000  0.0000000000  0.0000000000  0.0000000000  0.0000000000
  0.0153430000  0.0000000000  0.0000000000  0.0000000000  0.0000000000
  0.0755790000  0.0000000000  0.0000000000  0.0000000000  0.0000000000
  0.2568750000  1.0000000000  0.0000000000  0.0000000000  0.0000000000
  0.4973680000  0.0000000000  1.0000000000  0.0000000000  0.0000000000
  0.2961330000  0.0000000000  0.0000000000  1.0000000000  0.0000000000
  0.0000000000  0.0000000000  0.0000000000  0.0000000000  1.0000000000
* p-type functions
    4    4
          2.29200000
          0.83800000
          0.29200000
          0.08480000
  1.0000000000  0.0000000000  0.0000000000  0.0000000000
  0.0000000000  1.0000000000  0.0000000000  0.0000000000
  0.0000000000  0.0000000000  1.0000000000  0.0000000000
  0.0000000000  0.0000000000  0.0000000000  1.0000000000
* d-type functions
    3    3
          2.06200000
          0.66200000
          0.19000000
  1.0000000000  0.0000000000  0.0000000000
  0.0000000000  1.0000000000  0.0000000000
  0.0000000000  0.0000000000  1.0000000000
* f-type functions
    2    2
          1.39700000
          0.36000000
  1.0000000000  0.0000000000
  0.0000000000  1.0000000000

/He.aug-cc-pVQZ.Woon.8s4p3d2f.5s4p3d2f.
D.E. Woon, T.H. Dunning. J. Chem. Phys. 100 (1994) 2975-2988. doi:10.1063/1.466439
HELIUM (8s,4p,3d,2f) -> [5s,4p,3d,2f]
     2.0   3
* s-type functions
    8    5
        528.50000000
         79.31000000
         18.05000000
          5.08500000
          1.60900000
          0.53630000
          0.18330000
          0.04819000
  0.0009400000  0.0000000000  0.0000000000  0.0000000000  0.0000000000
  0.0072140000  0.0000000000  0.0000000000  0.0000000000  0.0000000000
  0.0359750000  0.0000000000  0.0000000000  0.0000000000  0.0000000000
  0.1277820000  0.0000000000  0.0000000000  0.0000000000  0.0000000000
  0.3084700000  1.0000000000  0.0000000000  0.0000000000  0.0000000000
  0.4530520000  0.0000000000  1.0000000000  0.0000000000  0.0000000000
  0.2388840000  0.0000000000  0.0000000000  1.0000000000  0.0000000000
  0.0000000000  0.0000000000  0.0000000000  0.0000000000  1.0000000000
* p-type functions
    4    4
          5.99400000
          1.74500000
          0.56000000
          0.16260000
  1.0000000000  0.0000000000  0.0000000000  0.0000000000
  0.0000000000  1.0000000000  0.0000000000  0.0000000000
  0.0000000000  0.0000000000  1.0000000000  0.0000000000
  0.0000000000  0.0000000000  0.0000000000  1.0000000000
* d-type functions
    3    3
          4.29900000
          1.22300000
          0.35100000
  1.0000000000  0.0000000000  0.0000000000
  0.0000000000  1.0000000000  0.0000000000
  0.0000000000  0.0000000000  1.0000000000
* f-type functions
    2    2
          2.68000000
          0.69060000
  1.0000000000  0.0000000000
  0.0000000000  1.0000000000

/Li.aug-cc-pVQZ.Prascher.13s7p4d3f2g.6s5p4d3f2g.
B.P. Prascher, D.E. Woon, K.A. Peterson, T.H. Dunning, A.K. Wilson. Theor. Chem. Acc. 128 (2011) 69-82. doi:10.1007/s00214-010-0764-0
LITHIUM (13s,7p,4d,3f,2g) -> [6s,5p,4d,3f,2g]
     3.0   4
* s-type functions
   13    6
       6601.00000000
        989.70000000
        225.70000000
         64.29000000
         21.18000000
          7.72400000
          3.00300000
          1.21200000
          0.49300000
          0.09515000
          0.04791000
          0.02220000
          0.00640000
  0.0001170000 -0.0000180000  0.0000000000  0.0000000000  0.0000000000  0.0000000000
  0.0009110000 -0.0001420000  0.0000000000  0.0000000000  0.0000000000  0.0000000000
  0.0047280000 -0.0007410000  0.0000000000  0.0000000000  0.0000000000  0.0000000000
  0.0191970000 -0.0030200000  0.0000000000  0.0000000000  0.0000000000  0.0000000000
  0.0630470000 -0.0101230000  0.0000000000  0.0000000000  0.0000000000  0.0000000000
  0.1632080000 -0.0270940000  0.0000000000  0.0000000000  0.0000000000  0.0000000000
  0.3148270000 -0.0573590000  0.0000000000  0.0000000000  0.0000000000  0.0000000000
  0.3939360000 -0.0938950000  0.0000000000  0.0000000000  0.0000000000  0.0000000000
  0.1969180000 -0.1210910000  0.0000000000  0.0000000000  0.0000000000  0.0000000000
  0.0099970000  0.2766080000  1.0000000000  0.0000000000  0.0000000000  0.0000000000
 -0.0054020000  0.5495480000  0.0000000000  1.0000000000  0.0000000000  0.0000000000
  0.0017040000  0.2773850000  0.0000000000  0.0000000000  1.0000000000  0.0000000000
  0.0000000000  0.0000000000  0.0000000000  0.0000000000  0.0000000000  1.0000000000
* p-type functions
    7    5
          6.25000000
          1.37000000
          0.36720000
          0.11920000
          0.04474000
          0.01795000
          0.00750000
  0.0033880000  0.0000000000  0.0000000000  0.0000000000  0.0000000000
  0.0193160000  0.0000000000  0.0000000000  0.0000000000  0.0000000000
  0.0791040000  0.0000000000  0.0000000000  0.0000000000  0.0000000000
  0.2740950000  1.0000000000  0.0000000000  0.0000000000  0.0000000000
  0.5194880000  0.0000000000  1.0000000000  0.0000000000  0.0000000000
  0.2844230000  0.0000000000  0.0000000000  1.0000000000  0.0000000000
  0.0000000000  0.0000000000  0.0000000000  0.0000000000  1.0000000000
* d-type functions
    4    4
          0.33520000
          0.14820000
          0.06560000
          0.02720000
  1.0000000000  0.0000000000  0.0000000000  0.0000000000
  0.0000000000  1.0000000000  0.0000000000  0.0000000000
  0.0000000000  0.0000000000  1.0000000000  0.0000000000
  0.0000000000  0.0000000000  0.0000000000  1.0000000000
* f-type functions
    3    3
          0.22800000
          0.11350000
          0.05040000
  1.0000000000  0.0000000000  0.0000000000
  0.0000000000  1.0000000000  0.0000000000
  0.0000000000  0.0000000000  1.0000000000
* g-type functions
    2    2
          0.23190000
          0.10410000
  1.0000000000  0.0000000000
  0.0000000000  1.0000000000

/Be.aug-cc-pVQZ.Prascher.13s7p4d3f2g.6s5p4d3f2g.
B.P. Prascher, D.E. Woon, K.A. Peterson, T.H. Dunning, A.K. Wilson. Theor. Chem. Acc. 128 (2011) 69-82. doi:10.1007/s00214-010-0764-0
BERYLLIUM (13s,7p,4d,3f,2g) -> [6s,5p,4d,3f,2g]
     4.0   4
* s-type functions
   13    6
      14630.00000000
       2191.00000000
        498.20000000
        140.90000000
         45.86000000
         16.47000000
          6.31900000
          2.53500000
          1.03500000
          0.25280000
          0.10520000
          0.04261000
          0.01410000
  0.0000920000 -0.0000170000  0.0000000000  0.0000000000  0.0000000000  0.0000000000
  0.0007130000 -0.0001300000  0.0000000000  0.0000000000  0.0000000000  0.0000000000
  0.0037350000 -0.0006790000  0.0000000000  0.0000000000  0.0000000000  0.0000000000
  0.0154680000 -0.0028570000  0.0000000000  0.0000000000  0.0000000000  0.0000000000
  0.0528740000 -0.0098130000  0.0000000000  0.0000000000  0.0000000000  0.0000000000
  0.1456940000 -0.0286090000  0.0000000000  0.0000000000  0.0000000000  0.0000000000
  0.3026810000 -0.0637600000  0.0000000000  0.0000000000  0.0000000000  0.0000000000
  0.4049360000 -0.1172310000  0.0000000000  0.0000000000  0.0000000000  0.0000000000
  0.2223870000 -0.1212020000  0.0000000000  0.0000000000  0.0000000000  0.0000000000
  0.0129120000  0.2532290000  1.0000000000  0.0000000000  0.0000000000  0.0000000000
 -0.0046480000  0.5818370000  0.0000000000  1.0000000000  0.0000000000  0.0000000000
  0.0012280000  0.2919540000  0.0000000000  0.0000000000  1.0000000000  0.0000000000
  0.0000000000  0.0000000000  0.0000000000  0.0000000000  0.0000000000  1.0000000000
* p-type functions
    7    5
         14.03000000
          3.16800000
          0.90240000
          0.30360000
          0.11300000
          0.04286000
          0.00840000
  0.0040990000  0.0000000000  0.0000000000  0.0000000000  0.0000000000
  0.0256260000  0.0000000000  0.0000000000  0.0000000000  0.0000000000
  0.1037680000  0.0000000000  0.0000000000  0.0000000000  0.0000000000
  0.3115470000  1.0000000000  0.0000000000  0.0000000000  0.0000000000
  0.4981280000  0.0000000000  1.0000000000  0.0000000000  0.0000000000
  0.2588760000  0.0000000000  0.0000000000  1.0000000000  0.0000000000
  0.0000000000  0.0000000000  0.0000000000  0.0000000000  1.0000000000
* d-type functions
    4    4
          1.12880000
          0.45690000
          0.18500000
          0.05560000
  1.0000000000  0.0000000000  0.0000000000  0.0000000000
  0.0000000000  1.0000000000  0.0000000000  0.0000000000
  0.0000000000  0.0000000000  1.0000000000  0.0000000000
  0.0000000000  0.0000000000  0.0000000000  1.0000000000
* f-type functions
    3    3
          0.47680000
          0.25210000
          0.09050000
  1.0000000000  0.0000000000  0.0000000000
  0.0000000000  1.0000000000  0.0000000000
  0.0000000000  0.0000000000  1.0000000000
* g-type functions
    2    2
          0.41310000
          0.16540000
  1.0000000000  0.0000000000
  0.0000000000  1.0000000000

/B.aug-cc-pVQZ.Kendall.13s7p4d3f2g.6s5p4d3f2g.
R.A. Kendall, T.H. Dunning, R.J. Harrison. J. Chem. Phys. 96 (1992) 6796-6806. doi:10.1063/1.462569
BORON (13s,7p,4d,3f,2g) -> [6s,5p,4d,3f,2g]
     5.0   4
* s-type functions
   13    6
      23870.00000000
       3575.00000000
        812.80000000
        229.70000000
         74.69000000
         26.81000000
         10.32000000
          4.17800000
          1.72700000
          0.47040000
          0.18960000
          0.07394000
          0.02721000
  0.0000880000 -0.0000180000  0.0000000000  0.0000000000  0.0000000000  0.0000000000
  0.0006870000 -0.0001390000  0.0000000000  0.0000000000  0.0000000000  0.0000000000
  0.0036000000 -0.0007250000  0.0000000000  0.0000000000  0.0000000000  0.0000000000
  0.0149490000 -0.0030630000  0.0000000000  0.0000000000  0.0000000000  0.0000000000
  0.0514350000 -0.0105810000  0.0000000000  0.0000000000  0.0000000000  0.0000000000
  0.1433020000 -0.0313650000  0.0000000000  0.0000000000  0.0000000000  0.0000000000
  0.3009350000 -0.0710120000  0.0000000000  0.0000000000  0.0000000000  0.0000000000
  0.4035260000 -0.1321030000  0.0000000000  0.0000000000  0.0000000000  0.0000000000
  0.2253400000 -0.1230720000  0.0000000000  0.0000000000  0.0000000000  0.0000000000
  0.0154070000  0.2618190000  1.0000000000  0.0000000000  0.0000000000  0.0000000000
 -0.0039550000  0.5866620000  0.0000000000  1.0000000000  0.0000000000  0.0000000000
  0.0011240000  0.2904940000  0.0000000000  0.0000000000  1.0000000000  0.0000000000
  0.0000000000  0.0000000000  0.0000000000  0.0000000000  0.0000000000  1.0000000000
* p-type functions
    7    5
         22.26000000
          5.05800000
          1.48700000
          0.50710000
          0.18120000
          0.06463000
          0.01878000
  0.0050950000  0.0000000000  0.0000000000  0.0000000000  0.0000000000
  0.0332060000  0.0000000000  0.0000000000  0.0000000000  0.0000000000
  0.1323140000  0.0000000000  0.0000000000  0.0000000000  0.0000000000
  0.3318180000  1.0000000000  0.0000000000  0.0000000000  0.0000000000
  0.4720630000  0.0000000000  1.0000000000  0.0000000000  0.0000000000
  0.2579790000  0.0000000000  0.0000000000  1.0000000000  0.0000000000
  0.0000000000  0.0000000000  0.0000000000  0.0000000000  1.0000000000
* d-type functions
    4    4
          1.11000000
          0.40200000
          0.14500000
          0.04660000
  1.0000000000  0.0000000000  0.0000000000  0.0000000000
  0.0000000000  1.0000000000  0.0000000000  0.0000000000
  0.0000000000  0.0000000000  1.0000000000  0.0000000000
  0.0000000000  0.0000000000  0.0000000000  1.0000000000
* f-type functions
    3    3
          0.88200000
          0.31100000
          0.11300000
  1.0000000000  0.0000000000  0.0000000000
  0.0000000000  1.0000000000  0.0000000000
  0.0000000000  0.0000000000  1.0000000000
* g-type functions
    2    2
          0.67300000
          0.27300000
  1.0000000000  0.0000000000
  0.0000000000  1.0000000000

/C.aug-cc-pVQZ.Kendall.13s7p4d3f2g.6s5p4d3f2g.
R.A. Kendall, T.H. Dunning, R.J. Harrison. J. Chem. Phys. 96 (1992) 6796-6806. doi:10.1063/1.462569
CARBON (13s,7p,4d,3f,2g) -> [6s,5p,4d,3f,2g]
     6.0   4
* s-type functions
   13    6
      33980.00000000
       5089.00000000
       1157.00000000
        326.60000000
        106.10000000
         38.11000000
         14.75000000
          6.03500000
          2.53000000
          0.73550000
          0.29050000
          0.11110000
          0.04145000
  0.0000910000 -0.0000190000  0.0000000000  0.0000000000  0.0000000000  0.0000000000
  0.0007040000 -0.0001510000  0.0000000000  0.0000000000  0.0000000000  0.0000000000
  0.0036930000 -0.0007850000  0.0000000000  0.0000000000  0.0000000000  0.0000000000
  0.0153600000 -0.0033240000  0.0000000000  0.0000000000  0.0000000000  0.0000000000
  0.0529290000 -0.0115120000  0.0000000000  0.0000000000  0.0000000000  0.0000000000
  0.1470430000 -0.0341600000  0.0000000000  0.0000000000  0.0000000000  0.0000000000
  0.3056310000 -0.0771730000  0.0000000000  0.0000000000  0.0000000000  0.0000000000
  0.3993450000 -0.1414930000  0.0000000000  0.0000000000  0.0000000000  0.0000000000
  0.2170510000 -0.1180190000  0.0000000000  0.0000000000  0.0000000000  0.0000000000
  0.0158940000  0.2738060000  1.0000000000  0.0000000000  0.0000000000  0.0000000000
 -0.0030840000  0.5865100000  0.0000000000  1.0000000000  0.0000000000  0.0000000000
  0.0009780000  0.2854300000  0.0000000000  0.0000000000  1.0000000000  0.0000000000
  0.0000000000  0.0000000000  0.0000000000  0.0000000000  0.0000000000  1.0000000000
* p-type functions
    7    5
         34.51000000
          7.91500000
          2.36800000
          0.81320000
          0.28900000
          0.10070000
          0.03218000
  0.0053780000  0.0000000000  0.0000000000  0.0000000000  0.0000000000
  0.0361320000  0.0000000000  0.0000000000  0.0000000000  0.0000000000
  0.1424930000  0.0000000000  0.0000000000  0.0000000000  0.0000000000
  0.3421500000  1.0000000000  0.0000000000  0.0000000000  0.0000000000
  0.4638640000  0.0000000000  1.0000000000  0.0000000000  0.0000000000
  0.2500280000  0.0000000000  0.0000000000  1.0000000000  0.0000000000
  0.0000000000  0.0000000000  0.0000000000  0.0000000000  1.0000000000
* d-type functions
    4    4
          1.84800000
          0.64900000
          0.22800000
          0.07660000
  1.0000000000  0.0000000000  0.0000000000  0.0000000000
  0.0000000000  1.0000000000  0.0000000000  0.0000000000
  0.0000000000  0.0000000000  1.0000000000  0.0000000000
  0.0000000000  0.0000000000  0.0000000000  1.0000000000
* f-type functions
    3    3
          1.41900000
          0.48500000
          0.18700000
  1.0000000000  0.0000000000  0.0000000000
  0.0000000000  1.0000000000  0.0000000000
  0.0000000000  0.0000000000  1.0000000000
* g-type functions
    2    2
          1.01100000
          0.42400000
  1.0000000000  0.0000000000
  0.0000000000  1.0000000000

/N.aug-cc-pVQZ.Kendall.13s7p4d3f2g.6s5p4d3f2g.
R.A. Kendall, T.H. Dunning, R.J. Harrison. J. Chem. Phys. 96 (1992) 6796-6806. doi:10.1063/1.462569
NITROGEN (13s,7p,4d,3f,2g) -> [6s,5p,4d,3f,2g]
     7.0   4
* s-type functions
   13    6
      45840.00000000
       6868.00000000
       1563.00000000
        442.40000000
        144.30000000
         52.18000000
         20.34000000
          8.38100000
          3.52900000
          1.05400000
          0.41180000
          0.15520000
          0.05464000
  0.0000920000 -0.0000200000  0.0000000000  0.0000000000  0.0000000000  0.0000000000
  0.0007170000 -0.0001590000  0.0000000000  0.0000000000  0.0000000000  0.0000000000
  0.0037490000 -0.0008240000  0.0000000000  0.0000000000  0.0000000000  0.0000000000
  0.0155320000 -0.0034780000  0.0000000000  0.0000000000  0.0000000000  0.0000000000
  0.0531460000 -0.0119660000  0.0000000000  0.0000000000  0.0000000000  0.0000000000
  0.1467870000 -0.0353880000  0.0000000000  0.0000000000  0.0000000000  0.0000000000
  0.3046630000 -0.0800770000  0.0000000000  0.0000000000  0.0000000000  0.0000000000
  0.3976840000 -0.1467220000  0.0000000000  0.0000000000  0.0000000000  0.0000000000
  0.2176410000 -0.1163600000  0.0000000000  0.0000000000  0.0000000000  0.0000000000
  0.0169630000  0.2799190000  1.0000000000  0.0000000000  0.0000000000  0.0000000000
 -0.0027450000  0.5854810000  0.0000000000  1.0000000000  0.0000000000  0.0000000000
  0.0009530000  0.2840280000  0.0000000000  0.0000000000  1.0000000000  0.0000000000
  0.0000000000  0.0000000000  0.0000000000  0.0000000000  0.0000000000  1.0000000000
* p-type functions
    7    5
         49.33000000
         11.37000000
          3.43500000
          1.18200000
          0.41730000
          0.14280000
          0.04402000
  0.0055330000  0.0000000000  0.0000000000  0.0000000000  0.0000000000
  0.0379620000  0.0000000000  0.0000000000  0.0000000000  0.0000000000
  0.1490280000  0.0000000000  0.0000000000  0.0000000000  0.0000000000
  0.3489220000  1.0000000000  0.0000000000  0.0000000000  0.0000000000
  0.4589720000  0.0000000000  1.0000000000  0.0000000000  0.0000000000
  0.2449230000  0.0000000000  0.0000000000  1.0000000000  0.0000000000
  0.0000000000  0.0000000000  0.0000000000  0.0000000000  1.0000000000
* d-type functions
    4    4
          2.83700000
          0.96800000
          0.33500000
          0.11100000
  1.0000000000  0.0000000000  0.0000000000  0.0000000000
  0.0000000000  1.0000000000  0.0000000000  0.0000000000
  0.0000000000  0.0000000000  1.0000000000  0.0000000000
  0.0000000000  0.0000000000  0.0000000000  1.0000000000
* f-type functions
    3    3
          2.02700000
          0.68500000
          0.24500000
  1.0000000000  0.0000000000  0.0000000000
  0.0000000000  1.0000000000  0.0000000000
  0.0000000000  0.0000000000  1.0000000000
* g-type functions
    2    2
          1.42700000
          0.55900000
  1.0000000000  0.0000000000
  0.0000000000  1.0000000000

/O.aug-cc-pVQZ.Kendall.13s7p4d3f2g.6s5p4d3f2g.
R.A. Kendall, T.H. Dunning, R.J. Harrison. J. Chem. Phys. 96 (1992) 6796-6806. doi:10.1063/1.462569
OXYGEN (13s,7p,4d,3f,2g) -> [6s,5p,4d,3f,2g]
     8.0   4
* s-type functions
   13    6
      61420.00000000
       9199.00000000
       2091.00000000
        590.90000000
        192.30000000
         69.32000000
         26.97000000
         11.10000000
          4.68200000
          1.42800000
          0.55470000
          0.20670000
          0.06959000
  0.0000900000 -0.0000200000  0.0000000000  0.0000000000  0.0000000000  0.0000000000
  0.0006980000 -0.0001590000  0.0000000000  0.0000000000  0.0000000000  0.0000000000
  0.0036640000 -0.0008290000  0.0000000000  0.0000000000  0.0000000000  0.0000000000
  0.0152180000 -0.0035080000  0.0000000000  0.0000000000  0.0000000000  0.0000000000
  0.0524230000 -0.0121560000  0.0000000000  0.0000000000  0.0000000000  0.0000000000
  0.1459210000 -0.0362610000  0.0000000000  0.0000000000  0.0000000000  0.0000000000
  0.3052580000 -0.0829920000  0.0000000000  0.0000000000  0.0000000000  0.0000000000
  0.3985080000 -0.1520900000  0.0000000000  0.0000000000  0.0000000000  0.0000000000
  0.2169800000 -0.1153310000  0.0000000000  0.0000000000  0.0000000000  0.0000000000
  0.0175940000  0.2889790000  1.0000000000  0.0000000000  0.0000000000  0.0000000000
 -0.0025020000  0.5861280000  0.0000000000  1.0000000000  0.0000000000  0.0000000000
  0.0009540000  0.2776240000  0.0000000000  0.0000000000  1.0000000000  0.0000000000
  0.0000000000  0.0000000000  0.0000000000  0.0000000000  0.0000000000  1.0000000000
* p-type functions
    7    5
         63.42000000
         14.66000000
          4.45900000
          1.53100000
          0.53020000
          0.17500000
          0.05348000
  0.0060440000  0.0000000000  0.0000000000  0.0000000000  0.0000000000
  0.0417990000  0.0000000000  0.0000000000  0.0000000000  0.0000000000
  0.1611430000  0.0000000000  0.0000000000  0.0000000000  0.0000000000
  0.3567310000  1.0000000000  0.0000000000  0.0000000000  0.0000000000
  0.4483090000  0.0000000000  1.0000000000  0.0000000000  0.0000000000
  0.2449400000  0.0000000000  0.0000000000  1.0000000000  0.0000000000
  0.0000000000  0.0000000000  0.0000000000  0.0000000000  1.0000000000
* d-type functions
    4    4
          3.77500000
          1.30000000
          0.44400000
          0.15400000
  1.0000000000  0.0000000000  0.0000000000  0.0000000000
  0.0000000000  1.0000000000  0.0000000000  0.0000000000
  0.0000000000  0.0000000000  1.0000000000  0.0000000000
  0.0000000000  0.0000000000  0.0000000000  1.0000000000
* f-type functions
    3    3
          2.66600000
          0.85900000
          0.32400000
  1.0000000000  0.0000000000  0.0000000000
  0.0000000000  1.0000000000  0.0000000000
  0.0000000000  0.0000000000  1.0000000000
* g-type functions
    2    2
          1.84600000
          0.71400000
  1.0000000000  0.0000000000
  0.0000000000  1.0000000000

/F.aug-cc-pVQZ.Kendall.13s7p4d3f2g.6s5p4d3f2g.
R.A. Kendall, T.H. Dunning, R.J. Harrison. J. Chem. Phys. 96 (1992) 6796-6806. doi:10.1063/1.462569
FLUORINE (13s,7p,4d,3f,2g) -> [6s,5p,4d,3f,2g]
     9.0   4
* s-type functions
   13    6
      74530.00000000
      11170.00000000
       2543.00000000
        721.00000000
        235.90000000
         85.60000000
         33.55000000
         13.93000000
          5.91500000
          1.84300000
          0.71240000
          0.26370000
          0.08594000
  0.0000950000 -0.0000220000  0.0000000000  0.0000000000  0.0000000000  0.0000000000
  0.0007380000 -0.0001720000  0.0000000000  0.0000000000  0.0000000000  0.0000000000
  0.0038580000 -0.0008910000  0.0000000000  0.0000000000  0.0000000000  0.0000000000
  0.0159260000 -0.0037480000  0.0000000000  0.0000000000  0.0000000000  0.0000000000
  0.0542890000 -0.0128620000  0.0000000000  0.0000000000  0.0000000000  0.0000000000
  0.1495130000 -0.0380610000  0.0000000000  0.0000000000  0.0000000000  0.0000000000
  0.3082520000 -0.0862390000  0.0000000000  0.0000000000  0.0000000000  0.0000000000
  0.3948530000 -0.1558650000  0.0000000000  0.0000000000  0.0000000000  0.0000000000
  0.2110310000 -0.1109140000  0.0000000000  0.0000000000  0.0000000000  0.0000000000
  0.0171510000  0.2987610000  1.0000000000  0.0000000000  0.0000000000  0.0000000000
 -0.0020150000  0.5850130000  0.0000000000  1.0000000000  0.0000000000  0.0000000000
  0.0008690000  0.2711590000  0.0000000000  0.0000000000  1.0000000000  0.0000000000
  0.0000000000  0.0000000000  0.0000000000  0.0000000000  0.0000000000  1.0000000000
* p-type functions
    7    5
         80.39000000
         18.63000000
          5.69400000
          1.95300000
          0.67020000
          0.21660000
          0.06568000
  0.0063470000  0.0000000000  0.0000000000  0.0000000000  0.0000000000
  0.0442040000  0.0000000000  0.0000000000  0.0000000000  0.0000000000
  0.1685140000  0.0000000000  0.0000000000  0.0000000000  0.0000000000
  0.3615630000  1.0000000000  0.0000000000  0.0000000000  0.0000000000
  0.4421780000  0.0000000000  1.0000000000  0.0000000000  0.0000000000
  0.2434350000  0.0000000000  0.0000000000  1.0000000000  0.0000000000
  0.0000000000  0.0000000000  0.0000000000  0.0000000000  1.0000000000
* d-type functions
    4    4
          5.01400000
          1.72500000
          0.58600000
          0.20700000
  1.0000000000  0.0000000000  0.0000000000  0.0000000000
  0.0000000000  1.0000000000  0.0000000000  0.0000000000
  0.0000000000  0.0000000000  1.0000000000  0.0000000000
  0.0000000000  0.0000000000  0.0000000000  1.0000000000
* f-type functions
    3    3
          3.56200000
          1.14800000
          0.46000000
  1.0000000000  0.0000000000  0.0000000000
  0.0000000000  1.0000000000  0.0000000000
  0.0000000000  0.0000000000  1.0000000000
* g-type functions
    2    2
          2.37600000
          0.92400000
  1.0000000000  0.0000000000
  0.0000000000  1.0000000000

/Ne.aug-cc-pVQZ.Kendall.13s7p4d3f2g.6s5p4d3f2g.
R.A. Kendall, T.H. Dunning, R.J. Harrison. J. Chem. Phys. 96 (1992) 6796-6806. doi:10.1063/1.462569
NEON (13s,7p,4d,3f,2g) -> [6s,5p,4d,3f,2g]
    10.0   4
* s-type functions
   13    6
      99920.00000000
      14960.00000000
       3399.00000000
        958.90000000
        311.20000000
        111.70000000
         43.32000000
         17.80000000
          7.50300000
          2.33700000
          0.90010000
          0.33010000
          0.10540000
  0.0000860000 -0.0000200000  0.0000000000  0.0000000000  0.0000000000  0.0000000000
  0.0006690000 -0.0001580000  0.0000000000  0.0000000000  0.0000000000  0.0000000000
  0.0035180000 -0.0008240000  0.0000000000  0.0000000000  0.0000000000  0.0000000000
  0.0146670000 -0.0035000000  0.0000000000  0.0000000000  0.0000000000  0.0000000000
  0.0509620000 -0.0122330000  0.0000000000  0.0000000000  0.0000000000  0.0000000000
  0.1437440000 -0.0370170000  0.0000000000  0.0000000000  0.0000000000  0.0000000000
  0.3045620000 -0.0861130000  0.0000000000  0.0000000000  0.0000000000  0.0000000000
  0.4001050000 -0.1583810000  0.0000000000  0.0000000000  0.0000000000  0.0000000000
  0.2186440000 -0.1142880000  0.0000000000  0.0000000000  0.0000000000  0.0000000000
  0.0186640000  0.2981910000  1.0000000000  0.0000000000  0.0000000000  0.0000000000
 -0.0021670000  0.5857840000  0.0000000000  1.0000000000  0.0000000000  0.0000000000
  0.0009510000  0.2724670000  0.0000000000  0.0000000000  1.0000000000  0.0000000000
  0.0000000000  0.0000000000  0.0000000000  0.0000000000  0.0000000000  1.0000000000
* p-type functions
    7    5
         99.68000000
         23.15000000
          7.10800000
          2.44100000
          0.83390000
          0.26620000
          0.08178000
  0.0065660000  0.0000000000  0.0000000000  0.0000000000  0.0000000000
  0.0459790000  0.0000000000  0.0000000000  0.0000000000  0.0000000000
  0.1734190000  0.0000000000  0.0000000000  0.0000000000  0.0000000000
  0.3645710000  1.0000000000  0.0000000000  0.0000000000  0.0000000000
  0.4381850000  0.0000000000  1.0000000000  0.0000000000  0.0000000000
  0.2416800000  0.0000000000  0.0000000000  1.0000000000  0.0000000000
  0.0000000000  0.0000000000  0.0000000000  0.0000000000  1.0000000000
* d-type functions
    4    4
          6.47100000
          2.21300000
          0.74700000
          0.27300000
  1.0000000000  0.0000000000  0.0000000000  0.0000000000
  0.0000000000  1.0000000000  0.0000000000  0.0000000000
  0.0000000000  0.0000000000  1.0000000000  0.0000000000
  0.0000000000  0.0000000000  0.0000000000  1.0000000000
* f-type functions
    3    3
          4.65700000
          1.52400000
          0.68900000
  1.0000000000  0.0000000000  0.0000000000
  0.0000000000  1.0000000000  0.0000000000
  0.0000000000  0.0000000000  1.0000000000
* g-type functions
    2    2
          2.98300000
          1.22400000
  1.0000000000  0.0000000000
  0.0000000000  1.0000000000

/Na.aug-cc-pVQZ.Prascher.20s13p4d3f2g.7s6p4d3f2g.
B.P. Prascher, D.E. Woon, K.A. Peterson, T.H. Dunning, A.K. Wilson. Theor. Chem. Acc. 128 (2011) 69-82. doi:10.1007/s00214-010-0764-0
SODIUM (20s,13p,4d,3f,2g) -> [7s,6p,4d,3f,2g]
    11.0   4
* s-type functions
   20    7
    1224000.00000000
     183200.00000000
      41700.00000000
      11810.00000000
       3853.00000000
       1391.00000000
        542.50000000
        224.90000000
         97.93000000
         44.31000000
         20.65000000
          9.72900000
          4.22800000
          1.96900000
          0.88900000
          0.39640000
          0.06993000
          0.03289000
          0.01612000
          0.00500000
  4.7889400e-6 -1.1695800e-6  1.7587100e-7  0.0000000000  0.0000000000  0.0000000000  0.0000000000
  0.0000372395 -0.0000090911  1.3659400e-6  0.0000000000  0.0000000000  0.0000000000  0.0000000000
  0.0001958310 -0.0000478499  7.1979500e-6  0.0000000000  0.0000000000  0.0000000000  0.0000000000
  0.0008266980 -0.0002019620  0.0000303349  0.0000000000  0.0000000000  0.0000000000  0.0000000000
  0.0030025100 -0.0007358370  0.0001107520  0.0000000000  0.0000000000  0.0000000000  0.0000000000
  0.0097031000 -0.0023874600  0.0003585960  0.0000000000  0.0000000000  0.0000000000  0.0000000000
  0.0282337000 -0.0070496900  0.0010627200  0.0000000000  0.0000000000  0.0000000000  0.0000000000
  0.0732058000 -0.0187856000  0.0028268700  0.0000000000  0.0000000000  0.0000000000  0.0000000000
  0.1628970000 -0.0446153000  0.0067674200  0.0000000000  0.0000000000  0.0000000000  0.0000000000
  0.2887080000 -0.0897741000  0.0136480000  0.0000000000  0.0000000000  0.0000000000  0.0000000000
  0.3468290000 -0.1429400000  0.0222814000  0.0000000000  0.0000000000  0.0000000000  0.0000000000
  0.2068650000 -0.1243150000  0.0196011000  0.0000000000  0.0000000000  0.0000000000  0.0000000000
  0.0328009000  0.0999648000 -0.0167708000  0.0000000000  0.0000000000  0.0000000000  0.0000000000
 -0.0006477360  0.4170800000 -0.0773734000  0.0000000000  0.0000000000  0.0000000000  0.0000000000
  0.0014587800  0.4751230000 -0.1135010000  0.0000000000  0.0000000000  0.0000000000  0.0000000000
 -0.0001783460  0.1632680000 -0.1391300000  0.0000000000  0.0000000000  0.0000000000  0.0000000000
  0.0000914789  0.0030954300  0.4400830000  1.0000000000  0.0000000000  0.0000000000  0.0000000000
 -0.0000825182 -0.0015526300  0.5389520000  0.0000000000  1.0000000000  0.0000000000  0.0000000000
  0.0000292252  0.0005577630  0.1338890000  0.0000000000  0.0000000000  1.0000000000  0.0000000000
  0.0000000000  0.0000000000  0.0000000000  0.0000000000  0.0000000000  0.0000000000  1.0000000000
* p-type functions
   13    6
        413.40000000
         97.98000000
         31.37000000
         11.62000000
          4.67100000
          1.91800000
          0.77750000
          0.30130000
          0.22750000
          0.07527000
          0.03126000
          0.01342000
          0.00720000
  0.0009081960 -0.0000901741  0.0000000000  0.0000000000  0.0000000000  0.0000000000
  0.0074177300 -0.0007393420  0.0000000000  0.0000000000  0.0000000000  0.0000000000
  0.0357464000 -0.0035730900  0.0000000000  0.0000000000  0.0000000000  0.0000000000
  0.1185200000 -0.0120142000  0.0000000000  0.0000000000  0.0000000000  0.0000000000
  0.2614030000 -0.0267178000  0.0000000000  0.0000000000  0.0000000000  0.0000000000
  0.3783950000 -0.0392753000  0.0000000000  0.0000000000  0.0000000000  0.0000000000
  0.3346320000 -0.0376083000  0.0000000000  0.0000000000  0.0000000000  0.0000000000
  0.1268440000 -0.0433228000  0.0000000000  0.0000000000  0.0000000000  0.0000000000
 -0.0147117000  0.0518003000  0.0000000000  0.0000000000  0.0000000000  0.0000000000
  0.0056865000  0.2601940000  1.0000000000  0.0000000000  0.0000000000  0.0000000000
 -0.0017097400  0.5496810000  0.0000000000  1.0000000000  0.0000000000  0.0000000000
  0.0005471420  0.2818720000  0.0000000000  0.0000000000  1.0000000000  0.0000000000
  0.0000000000  0.0000000000  0.0000000000  0.0000000000  0.0000000000  1.0000000000
* d-type functions
    4    4
          0.21160000
          0.10390000
          0.05100000
          0.02530000
  1.0000000000  0.0000000000  0.0000000000  0.0000000000
  0.0000000000  1.0000000000  0.0000000000  0.0000000000
  0.0000000000  0.0000000000  1.0000000000  0.0000000000
  0.0000000000  0.0000000000  0.0000000000  1.0000000000
* f-type functions
    3    3
          0.20060000
          0.10090000
          0.04470000
  1.0000000000  0.0000000000  0.0000000000
  0.0000000000  1.0000000000  0.0000000000
  0.0000000000  0.0000000000  1.0000000000
* g-type functions
    2    2
          0.17760000
          0.08720000
  1.0000000000  0.0000000000
  0.0000000000  1.0000000000

/Mg.aug-cc-pVQZ.Prascher.17s13p4d3f2g.7s6p4d3f2g.
B.P. Prascher, D.E. Woon, K.A. Peterson, T.H. Dunning, A.K. Wilson. Theor. Chem. Acc. 128 (2011) 69-82. doi:10.1007/s00214-010-0764-0
MAGNESIUM (17s,13p,4d,3f,2g) -> [7s,6p,4d,3f,2g]
    12.0   4
* s-type functions
   17    7
     327600.00000000
      49050.00000000
      11150.00000000
       3152.00000000
       1025.00000000
        368.80000000
        143.20000000
         58.96000000
         25.40000000
         11.15000000
          4.00400000
          1.70100000
          0.70600000
          0.14100000
          0.06808000
          0.03063000
          0.01090000
  0.0000309608 -7.8317300e-6  1.5090800e-6  0.0000000000  0.0000000000  0.0000000000  0.0000000000
  0.0002409540 -0.0000607935  0.0000117134  0.0000000000  0.0000000000  0.0000000000  0.0000000000
  0.0012666000 -0.0003211970  0.0000618980  0.0000000000  0.0000000000  0.0000000000  0.0000000000
  0.0053335900 -0.0013495500  0.0002600880  0.0000000000  0.0000000000  0.0000000000  0.0000000000
  0.0190770000 -0.0049057000  0.0009462180  0.0000000000  0.0000000000  0.0000000000  0.0000000000
  0.0588058000 -0.0153561000  0.0029659500  0.0000000000  0.0000000000  0.0000000000  0.0000000000
  0.1514540000 -0.0423409000  0.0082124500  0.0000000000  0.0000000000  0.0000000000  0.0000000000
  0.3007160000 -0.0940603000  0.0183977000  0.0000000000  0.0000000000  0.0000000000  0.0000000000
  0.3811490000 -0.1634250000  0.0326657000  0.0000000000  0.0000000000  0.0000000000  0.0000000000
  0.2135840000 -0.1247540000  0.0257315000  0.0000000000  0.0000000000  0.0000000000  0.0000000000
  0.0231210000  0.2356230000 -0.0535351000  0.0000000000  0.0000000000  0.0000000000  0.0000000000
 -0.0023075700  0.5775630000 -0.1568950000  0.0000000000  0.0000000000  0.0000000000  0.0000000000
  0.0012890000  0.3352320000 -0.2066590000  0.0000000000  0.0000000000  0.0000000000  0.0000000000
 -0.0004263870  0.0156338000  0.3242980000  1.0000000000  0.0000000000  0.0000000000  0.0000000000
  0.0003543200 -0.0083779900  0.5526110000  0.0000000000  1.0000000000  0.0000000000  0.0000000000
 -0.0001125880  0.0022305600  0.2603520000  0.0000000000  0.0000000000  1.0000000000  0.0000000000
  0.0000000000  0.0000000000  0.0000000000  0.0000000000  0.0000000000  0.0000000000  1.0000000000
* p-type functions
   13    6
        539.60000000
        127.90000000
         41.02000000
         15.25000000
          6.16600000
          2.56100000
          1.06000000
          0.41760000
          0.26900000
          0.12230000
          0.05476000
          0.02388000
          0.00810000
  0.0008339690 -0.0001320760  0.0000000000  0.0000000000  0.0000000000  0.0000000000
  0.0068921500 -0.0010953800  0.0000000000  0.0000000000  0.0000000000  0.0000000000
  0.0337874000 -0.0053949500  0.0000000000  0.0000000000  0.0000000000  0.0000000000
  0.1144010000 -0.0185572000  0.0000000000  0.0000000000  0.0000000000  0.0000000000
  0.2595140000 -0.0427375000  0.0000000000  0.0000000000  0.0000000000  0.0000000000
  0.3850950000 -0.0647684000  0.0000000000  0.0000000000  0.0000000000  0.0000000000
  0.3353730000 -0.0627818000  0.0000000000  0.0000000000  0.0000000000  0.0000000000
  0.1106410000 -0.0244912000  0.0000000000  0.0000000000  0.0000000000  0.0000000000
 -0.0121315000  0.1047610000  0.0000000000  0.0000000000  0.0000000000  0.0000000000
  0.0070056200  0.3589090000  1.0000000000  0.0000000000  0.0000000000  0.0000000000
 -0.0015133500  0.4925010000  0.0000000000  1.0000000000  0.0000000000  0.0000000000
  0.0004489250  0.1852800000  0.0000000000  0.0000000000  1.0000000000  0.0000000000
  0.0000000000  0.0000000000  0.0000000000  0.0000000000  0.0000000000  1.0000000000
* d-type functions
    4    4
          0.36510000
          0.19180000
          0.10080000
          0.03500000
  1.0000000000  0.0000000000  0.0000000000  0.0000000000
  0.0000000000  1.0000000000  0.0000000000  0.0000000000
  0.0000000000  0.0000000000  1.0000000000  0.0000000000
  0.0000000000  0.0000000000  0.0000000000  1.0000000000
* f-type functions
    3    3
          0.36220000
          0.17910000
          0.06580000
  1.0000000000  0.0000000000  0.0000000000
  0.0000000000  1.0000000000  0.0000000000
  0.0000000000  0.0000000000  1.0000000000
* g-type functions
    2    2
          0.30630000
          0.12520000
  1.0000000000  0.0000000000
  0.0000000000  1.0000000000

/Al.aug-cc-pVQZ.Woon.17s12p4d3f2g.7s6p4d3f2g.
D.E. Woon, T.H. Dunning. J. Chem. Phys. 98 (1993) 1358-1371. doi:10.1063/1.464303
ALUMINIUM (17s,12p,4d,3f,2g) -> [7s,6p,4d,3f,2g]
    13.0   4
* s-type functions
   17    7
     419600.00000000
      62830.00000000
      14290.00000000
       4038.00000000
       1312.00000000
        470.50000000
        181.80000000
         74.46000000
         31.90000000
         13.96000000
          5.18000000
          2.26500000
          0.96640000
          0.24470000
          0.11840000
          0.05021000
          0.01830000
  0.0000278219 -7.2375400e-6  0.0000016715  0.0000000000  0.0000000000  0.0000000000  0.0000000000
  0.0002163300 -0.0000561733  0.0000129641  0.0000000000  0.0000000000  0.0000000000  0.0000000000
  0.0011375400 -0.0002965280  0.0000685101  0.0000000000  0.0000000000  0.0000000000  0.0000000000
  0.0047963500 -0.0012491300  0.0002882740  0.0000000000  0.0000000000  0.0000000000  0.0000000000
  0.0172389000 -0.0045510100  0.0010527600  0.0000000000  0.0000000000  0.0000000000  0.0000000000
  0.0538066000 -0.0144393000  0.0033387800  0.0000000000  0.0000000000  0.0000000000  0.0000000000
  0.1413260000 -0.0403464000  0.0093921700  0.0000000000  0.0000000000  0.0000000000  0.0000000000
  0.2892680000 -0.0922618000  0.0216047000  0.0000000000  0.0000000000  0.0000000000  0.0000000000
  0.3848250000 -0.1645100000  0.0395873000  0.0000000000  0.0000000000  0.0000000000  0.0000000000
  0.2328520000 -0.1412960000  0.0349180000  0.0000000000  0.0000000000  0.0000000000  0.0000000000
  0.0293330000  0.1953650000 -0.0528415000  0.0000000000  0.0000000000  0.0000000000  0.0000000000
 -0.0030057400  0.5724750000 -0.1918780000  0.0000000000  0.0000000000  0.0000000000  0.0000000000
  0.0016667300  0.3740410000 -0.2541150000  0.0000000000  0.0000000000  0.0000000000  0.0000000000
 -0.0006060170  0.0234119000  0.2750700000  1.0000000000  0.0000000000  0.0000000000  0.0000000000
  0.0004313550 -0.0090519700  0.6047430000  0.0000000000  1.0000000000  0.0000000000  0.0000000000
 -0.0001229190  0.0021117400  0.2876290000  0.0000000000  0.0000000000  1.0000000000  0.0000000000
  0.0000000000  0.0000000000  0.0000000000  0.0000000000  0.0000000000  0.0000000000  1.0000000000
* p-type functions
   12    6
        891.30000000
        211.30000000
         68.28000000
         25.70000000
         10.63000000
          4.60200000
          2.01500000
          0.87060000
          0.29720000
          0.11000000
          0.03989000
          0.01210000
  0.0004917550 -0.0000888695  0.0000000000  0.0000000000  0.0000000000  0.0000000000
  0.0041584300 -0.0007458230  0.0000000000  0.0000000000  0.0000000000  0.0000000000
  0.0212538000 -0.0038702500  0.0000000000  0.0000000000  0.0000000000  0.0000000000
  0.0764058000 -0.0139350000  0.0000000000  0.0000000000  0.0000000000  0.0000000000
  0.1942770000 -0.0366860000  0.0000000000  0.0000000000  0.0000000000  0.0000000000
  0.3344280000 -0.0627797000  0.0000000000  0.0000000000  0.0000000000  0.0000000000
  0.3750260000 -0.0789602000  0.0000000000  0.0000000000  0.0000000000  0.0000000000
  0.2040410000 -0.0288589000  0.0000000000  0.0000000000  0.0000000000  0.0000000000
  0.0213738000  0.2382560000  1.0000000000  0.0000000000  0.0000000000  0.0000000000
 -0.0020214400  0.5513630000  0.0000000000  1.0000000000  0.0000000000  0.0000000000
  0.0008172510  0.3543850000  0.0000000000  0.0000000000  1.0000000000  0.0000000000
  0.0000000000  0.0000000000  0.0000000000  0.0000000000  0.0000000000  1.0000000000
* d-type functions
    4    4
          0.08040000
          0.19900000
          0.49400000
          0.02820000
  1.0000000000  0.0000000000  0.0000000000  0.0000000000
  0.0000000000  1.0000000000  0.0000000000  0.0000000000
  0.0000000000  0.0000000000  1.0000000000  0.0000000000
  0.0000000000  0.0000000000  0.0000000000  1.0000000000
* f-type functions
    3    3
          0.15400000
          0.40100000
          0.05820000
  1.0000000000  0.0000000000  0.0000000000
  0.0000000000  1.0000000000  0.0000000000
  0.0000000000  0.0000000000  1.0000000000
* g-type functions
    2    2
          0.35700000
          0.15300000
  1.0000000000  0.0000000000
  0.0000000000  1.0000000000

/Si.aug-cc-pVQZ.Woon.17s12p4d3f2g.7s6p4d3f2g.
D.E. Woon, T.H. Dunning. J. Chem. Phys. 98 (1993) 1358-1371. doi:10.1063/1.464303
SILICON (17s,12p,4d,3f,2g) -> [7s,6p,4d,3f,2g]
    14.0   4
* s-type functions
   17    7
     513000.00000000
      76820.00000000
      17470.00000000
       4935.00000000
       1602.00000000
        574.10000000
        221.50000000
         90.54000000
         38.74000000
         16.95000000
          6.45200000
          2.87400000
          1.25000000
          0.35990000
          0.16990000
          0.07066000
          0.02750000
  0.0000260920 -0.0000069488  1.7806800e-6  0.0000000000  0.0000000000  0.0000000000  0.0000000000
  0.0002029050 -0.0000539641  0.0000138148  0.0000000000  0.0000000000  0.0000000000  0.0000000000
  0.0010671500 -0.0002847160  0.0000730005  0.0000000000  0.0000000000  0.0000000000  0.0000000000
  0.0045059700 -0.0012020300  0.0003076660  0.0000000000  0.0000000000  0.0000000000  0.0000000000
  0.0162359000 -0.0043839700  0.0011256300  0.0000000000  0.0000000000  0.0000000000  0.0000000000
  0.0508913000 -0.0139776000  0.0035843500  0.0000000000  0.0000000000  0.0000000000  0.0000000000
  0.1351550000 -0.0393516000  0.0101728000  0.0000000000  0.0000000000  0.0000000000  0.0000000000
  0.2812920000 -0.0914283000  0.0237520000  0.0000000000  0.0000000000  0.0000000000  0.0000000000
  0.3853360000 -0.1656090000  0.0443483000  0.0000000000  0.0000000000  0.0000000000  0.0000000000
  0.2456510000 -0.1525050000  0.0419041000  0.0000000000  0.0000000000  0.0000000000  0.0000000000
  0.0343145000  0.1685240000 -0.0502504000  0.0000000000  0.0000000000  0.0000000000  0.0000000000
 -0.0033488400  0.5692840000 -0.2165780000  0.0000000000  0.0000000000  0.0000000000  0.0000000000
  0.0018762500  0.3980560000 -0.2864480000  0.0000000000  0.0000000000  0.0000000000  0.0000000000
 -0.0006933270  0.0291509000  0.2632560000  1.0000000000  0.0000000000  0.0000000000  0.0000000000
  0.0004383080 -0.0084897600  0.6349000000  0.0000000000  1.0000000000  0.0000000000  0.0000000000
 -0.0001226160  0.0019960300  0.2908320000  0.0000000000  0.0000000000  1.0000000000  0.0000000000
  0.0000000000  0.0000000000  0.0000000000  0.0000000000  0.0000000000  0.0000000000  1.0000000000
* p-type functions
   12    6
       1122.00000000
        266.00000000
         85.92000000
         32.33000000
         13.37000000
          5.80000000
          2.55900000
          1.12400000
          0.39880000
          0.15330000
          0.05728000
          0.02000000
  0.0004481430 -0.0000964883  0.0000000000  0.0000000000  0.0000000000  0.0000000000
  0.0038163900 -0.0008119710  0.0000000000  0.0000000000  0.0000000000  0.0000000000
  0.0198105000 -0.0043008700  0.0000000000  0.0000000000  0.0000000000  0.0000000000
  0.0727017000 -0.0157502000  0.0000000000  0.0000000000  0.0000000000  0.0000000000
  0.1898390000 -0.0429541000  0.0000000000  0.0000000000  0.0000000000  0.0000000000
  0.3356720000 -0.0752574000  0.0000000000  0.0000000000  0.0000000000  0.0000000000
  0.3793650000 -0.0971446000  0.0000000000  0.0000000000  0.0000000000  0.0000000000
  0.2011930000 -0.0227507000  0.0000000000  0.0000000000  0.0000000000  0.0000000000
  0.0208515000  0.2919880000  1.0000000000  0.0000000000  0.0000000000  0.0000000000
 -0.0017025800  0.5506700000  0.0000000000  1.0000000000  0.0000000000  0.0000000000
  0.0007500480  0.2976180000  0.0000000000  0.0000000000  1.0000000000  0.0000000000
  0.0000000000  0.0000000000  0.0000000000  0.0000000000  0.0000000000  1.0000000000
* d-type functions
    4    4
          0.12000000
          0.30200000
          0.76000000
          0.04350000
  1.0000000000  0.0000000000  0.0000000000  0.0000000000
  0.0000000000  1.0000000000  0.0000000000  0.0000000000
  0.0000000000  0.0000000000  1.0000000000  0.0000000000
  0.0000000000  0.0000000000  0.0000000000  1.0000000000
* f-type functions
    3    3
          0.21200000
          0.54100000
          0.08460000
  1.0000000000  0.0000000000  0.0000000000
  0.0000000000  1.0000000000  0.0000000000
  0.0000000000  0.0000000000  1.0000000000
* g-type functions
    2    2
          0.46100000
          0.21200000
  1.0000000000  0.0000000000
  0.0000000000  1.0000000000

/P.aug-cc-pVQZ.Woon.17s12p4d3f2g.7s6p4d3f2g.
D.E. Woon, T.H. Dunning. J. Chem. Phys. 98 (1993) 1358-1371. doi:10.1063/1.464303
PHOSPHORUS (17s,12p,4d,3f,2g) -> [7s,6p,4d,3f,2g]
    15.0   4
* s-type functions
   17    7
     615200.00000000
      92120.00000000
      20950.00000000
       5920.00000000
       1922.00000000
        688.00000000
        265.00000000
        108.20000000
         46.22000000
         20.23000000
          7.85900000
          3.54700000
          1.56400000
          0.48880000
          0.22660000
          0.09331000
          0.03540000
  0.0000247450 -6.7220500e-6  0.0000018474  0.0000000000  0.0000000000  0.0000000000  0.0000000000
  0.0001924650 -0.0000522311  0.0000143380  0.0000000000  0.0000000000  0.0000000000  0.0000000000
  0.0010120200 -0.0002753610  0.0000757228  0.0000000000  0.0000000000  0.0000000000  0.0000000000
  0.0042726100 -0.0011630700  0.0003192050  0.0000000000  0.0000000000  0.0000000000  0.0000000000
  0.0154161000 -0.0042428100  0.0011685100  0.0000000000  0.0000000000  0.0000000000  0.0000000000
  0.0485976000 -0.0136114000  0.0037426700  0.0000000000  0.0000000000  0.0000000000  0.0000000000
  0.1300600000 -0.0385114000  0.0106817000  0.0000000000  0.0000000000  0.0000000000  0.0000000000
  0.2745140000 -0.0906643000  0.0252657000  0.0000000000  0.0000000000  0.0000000000  0.0000000000
  0.3854020000 -0.1665840000  0.0479283000  0.0000000000  0.0000000000  0.0000000000  0.0000000000
  0.2559340000 -0.1614470000  0.0477096000  0.0000000000  0.0000000000  0.0000000000  0.0000000000
  0.0391237000  0.1467810000 -0.0466525000  0.0000000000  0.0000000000  0.0000000000  0.0000000000
 -0.0036801000  0.5666820000 -0.2349680000  0.0000000000  0.0000000000  0.0000000000  0.0000000000
  0.0020821100  0.4164330000 -0.3113370000  0.0000000000  0.0000000000  0.0000000000  0.0000000000
 -0.0007884790  0.0343844000  0.2571090000  1.0000000000  0.0000000000  0.0000000000  0.0000000000
  0.0004540540 -0.0078063800  0.6536550000  0.0000000000  1.0000000000  0.0000000000  0.0000000000
 -0.0001266400  0.0019225900  0.2942120000  0.0000000000  0.0000000000  1.0000000000  0.0000000000
  0.0000000000  0.0000000000  0.0000000000  0.0000000000  0.0000000000  0.0000000000  1.0000000000
* p-type functions
   12    6
       1367.00000000
        324.00000000
        104.60000000
         39.37000000
         16.26000000
          7.05600000
          3.13000000
          1.39400000
          0.51790000
          0.20320000
          0.07698000
          0.02720000
  0.0004210150 -0.0001008270  0.0000000000  0.0000000000  0.0000000000  0.0000000000
  0.0036098500 -0.0008544990  0.0000000000  0.0000000000  0.0000000000  0.0000000000
  0.0189217000 -0.0045711600  0.0000000000  0.0000000000  0.0000000000  0.0000000000
  0.0705560000 -0.0170327000  0.0000000000  0.0000000000  0.0000000000  0.0000000000
  0.1881570000 -0.0475204000  0.0000000000  0.0000000000  0.0000000000  0.0000000000
  0.3387090000 -0.0852786000  0.0000000000  0.0000000000  0.0000000000  0.0000000000
  0.3819430000 -0.1096760000  0.0000000000  0.0000000000  0.0000000000  0.0000000000
  0.1952610000 -0.0161181000  0.0000000000  0.0000000000  0.0000000000  0.0000000000
  0.0199416000  0.3228930000  1.0000000000  0.0000000000  0.0000000000  0.0000000000
 -0.0013512100  0.5457380000  0.0000000000  1.0000000000  0.0000000000  0.0000000000
  0.0005171440  0.2685380000  0.0000000000  0.0000000000  1.0000000000  0.0000000000
  0.0000000000  0.0000000000  0.0000000000  0.0000000000  0.0000000000  1.0000000000
* d-type functions
    4    4
          0.16500000
          0.41300000
          1.03600000
          0.05940000
  1.0000000000  0.0000000000  0.0000000000  0.0000000000
  0.0000000000  1.0000000000  0.0000000000  0.0000000000
  0.0000000000  0.0000000000  1.0000000000  0.0000000000
  0.0000000000  0.0000000000  0.0000000000  1.0000000000
* f-type functions
    3    3
          0.28000000
          0.70300000
          0.10900000
  1.0000000000  0.0000000000  0.0000000000
  0.0000000000  1.0000000000  0.0000000000
  0.0000000000  0.0000000000  1.0000000000
* g-type functions
    2    2
          0.59700000
          0.25000000
  1.0000000000  0.0000000000
  0.0000000000  1.0000000000

/S.aug-cc-pVQZ.Woon.17s12p4d3f2g.7s6p4d3f2g.
D.E. Woon, T.H. Dunning. J. Chem. Phys. 98 (1993) 1358-1371. doi:10.1063/1.464303
SULFUR (17s,12p,4d,3f,2g) -> [7s,6p,4d,3f,2g]
    16.0   4
* s-type functions
   17    7
     727800.00000000
     109000.00000000
      24800.00000000
       7014.00000000
       2278.00000000
        814.70000000
        313.40000000
        127.70000000
         54.48000000
         23.85000000
          9.42800000
          4.29000000
          1.90900000
          0.62700000
          0.28730000
          0.11720000
          0.04280000
  0.0000236025 -6.5217900e-6  1.8940600e-6  0.0000000000  0.0000000000  0.0000000000  0.0000000000
  0.0001834820 -0.0000506631  0.0000146948  0.0000000000  0.0000000000  0.0000000000  0.0000000000
  0.0009642780 -0.0002668330  0.0000775460  0.0000000000  0.0000000000  0.0000000000  0.0000000000
  0.0040653700 -0.0011260100  0.0003265090  0.0000000000  0.0000000000  0.0000000000  0.0000000000
  0.0146973000 -0.0041118600  0.0011968600  0.0000000000  0.0000000000  0.0000000000  0.0000000000
  0.0465081000 -0.0132454000  0.0038479900  0.0000000000  0.0000000000  0.0000000000  0.0000000000
  0.1255080000 -0.0377004000  0.0110539000  0.0000000000  0.0000000000  0.0000000000  0.0000000000
  0.2684330000 -0.0898554000  0.0264645000  0.0000000000  0.0000000000  0.0000000000  0.0000000000
  0.3848090000 -0.1670980000  0.0508771000  0.0000000000  0.0000000000  0.0000000000  0.0000000000
  0.2653720000 -0.1693540000  0.0530030000  0.0000000000  0.0000000000  0.0000000000  0.0000000000
  0.0437326000  0.1278240000 -0.0425518000  0.0000000000  0.0000000000  0.0000000000  0.0000000000
 -0.0037880700  0.5648620000 -0.2508530000  0.0000000000  0.0000000000  0.0000000000  0.0000000000
  0.0021808300  0.4317670000 -0.3331520000  0.0000000000  0.0000000000  0.0000000000  0.0000000000
 -0.0008369440  0.0389398000  0.2637960000  1.0000000000  0.0000000000  0.0000000000  0.0000000000
  0.0004480880 -0.0073026000  0.6668490000  0.0000000000  1.0000000000  0.0000000000  0.0000000000
 -0.0001252930  0.0019232700  0.2884510000  0.0000000000  0.0000000000  1.0000000000  0.0000000000
  0.0000000000  0.0000000000  0.0000000000  0.0000000000  0.0000000000  0.0000000000  1.0000000000
* p-type functions
   12    6
       1546.00000000
        366.40000000
        118.40000000
         44.53000000
         18.38000000
          7.96500000
          3.54100000
          1.59100000
          0.62050000
          0.24200000
          0.09014000
          0.03170000
  0.0004411830 -0.0001131100  0.0000000000  0.0000000000  0.0000000000  0.0000000000
  0.0037757100 -0.0009585810  0.0000000000  0.0000000000  0.0000000000  0.0000000000
  0.0198360000 -0.0051347100  0.0000000000  0.0000000000  0.0000000000  0.0000000000
  0.0742063000 -0.0192641000  0.0000000000  0.0000000000  0.0000000000  0.0000000000
  0.1973270000 -0.0535980000  0.0000000000  0.0000000000  0.0000000000  0.0000000000
  0.3518510000 -0.0960333000  0.0000000000  0.0000000000  0.0000000000  0.0000000000
  0.3786870000 -0.1181830000  0.0000000000  0.0000000000  0.0000000000  0.0000000000
  0.1709310000  0.0092319400  0.0000000000  0.0000000000  0.0000000000  0.0000000000
  0.0151587000  0.3588410000  1.0000000000  0.0000000000  0.0000000000  0.0000000000
  0.0000671981  0.5258180000  0.0000000000  1.0000000000  0.0000000000  0.0000000000
  0.0004054910  0.2488720000  0.0000000000  0.0000000000  1.0000000000  0.0000000000
  0.0000000000  0.0000000000  0.0000000000  0.0000000000  0.0000000000  1.0000000000
* d-type functions
    4    4
          0.20300000
          0.50400000
          1.25000000
          0.07480000
  1.0000000000  0.0000000000  0.0000000000  0.0000000000
  0.0000000000  1.0000000000  0.0000000000  0.0000000000
  0.0000000000  0.0000000000  1.0000000000  0.0000000000
  0.0000000000  0.0000000000  0.0000000000  1.0000000000
* f-type functions
    3    3
          0.33500000
          0.86900000
          0.14000000
  1.0000000000  0.0000000000  0.0000000000
  0.0000000000  1.0000000000  0.0000000000
  0.0000000000  0.0000000000  1.0000000000
* g-type functions
    2    2
          0.68300000
          0.29700000
  1.0000000000  0.0000000000
  0.0000000000  1.0000000000

/Cl.aug-cc-pVQZ.Woon.17s12p4d3f2g.7s6p4d3f2g.
D.E. Woon, T.H. Dunning. J. Chem. Phys. 98 (1993) 1358-1371. doi:10.1063/1.464303
CHLORINE (17s,12p,4d,3f,2g) -> [7s,6p,4d,3f,2g]
    17.0   4
* s-type functions
   17    7
     834900.00000000
     125000.00000000
      28430.00000000
       8033.00000000
       2608.00000000
        933.90000000
        360.00000000
        147.00000000
         62.88000000
         27.60000000
         11.08000000
          5.07500000
          2.27800000
          0.77750000
          0.35270000
          0.14310000
          0.05190000
  0.0000231688 -6.4964900e-6  1.9664500e-6  0.0000000000  0.0000000000  0.0000000000  0.0000000000
  0.0001801540 -0.0000504895  0.0000152620  0.0000000000  0.0000000000  0.0000000000  0.0000000000
  0.0009477820 -0.0002661130  0.0000806086  0.0000000000  0.0000000000  0.0000000000  0.0000000000
  0.0040013900 -0.0011249900  0.0003399600  0.0000000000  0.0000000000  0.0000000000  0.0000000000
  0.0144629000 -0.0041049700  0.0012455100  0.0000000000  0.0000000000  0.0000000000  0.0000000000
  0.0456586000 -0.0131987000  0.0039961200  0.0000000000  0.0000000000  0.0000000000  0.0000000000
  0.1232480000 -0.0375342000  0.0114751000  0.0000000000  0.0000000000  0.0000000000  0.0000000000
  0.2643690000 -0.0897233000  0.0275504000  0.0000000000  0.0000000000  0.0000000000  0.0000000000
  0.3829890000 -0.1676710000  0.0532917000  0.0000000000  0.0000000000  0.0000000000  0.0000000000
  0.2709340000 -0.1747630000  0.0571246000  0.0000000000  0.0000000000  0.0000000000  0.0000000000
  0.0471404000  0.1149090000 -0.0395201000  0.0000000000  0.0000000000  0.0000000000  0.0000000000
 -0.0037176600  0.5636180000 -0.2643430000  0.0000000000  0.0000000000  0.0000000000  0.0000000000
  0.0021915800  0.4416060000 -0.3492910000  0.0000000000  0.0000000000  0.0000000000  0.0000000000
 -0.0008498500  0.0426697000  0.2696710000  1.0000000000  0.0000000000  0.0000000000  0.0000000000
  0.0004246640 -0.0066722900  0.6760730000  0.0000000000  1.0000000000  0.0000000000  0.0000000000
 -0.0001200180  0.0019072900  0.2846790000  0.0000000000  0.0000000000  1.0000000000  0.0000000000
  0.0000000000  0.0000000000  0.0000000000  0.0000000000  0.0000000000  0.0000000000  1.0000000000
* p-type functions
   12    6
       1703.00000000
        403.60000000
        130.30000000
         49.05000000
         20.26000000
          8.78700000
          3.91900000
          1.76500000
          0.72070000
          0.28390000
          0.10600000
          0.03760000
  0.0004740390 -0.0001282660  0.0000000000  0.0000000000  0.0000000000  0.0000000000
  0.0040641200 -0.0010935600  0.0000000000  0.0000000000  0.0000000000  0.0000000000
  0.0213355000 -0.0058342900  0.0000000000  0.0000000000  0.0000000000  0.0000000000
  0.0794611000 -0.0219258000  0.0000000000  0.0000000000  0.0000000000  0.0000000000
  0.2089270000 -0.0601385000  0.0000000000  0.0000000000  0.0000000000  0.0000000000
  0.3649450000 -0.1069290000  0.0000000000  0.0000000000  0.0000000000  0.0000000000
  0.3717250000 -0.1224540000  0.0000000000  0.0000000000  0.0000000000  0.0000000000
  0.1462920000  0.0383619000  0.0000000000  0.0000000000  0.0000000000  0.0000000000
  0.0107906000  0.3852560000  1.0000000000  0.0000000000  0.0000000000  0.0000000000
  0.0011700400  0.5072650000  0.0000000000  1.0000000000  0.0000000000  0.0000000000
  0.0003394080  0.2272180000  0.0000000000  0.0000000000  1.0000000000  0.0000000000
  0.0000000000  0.0000000000  0.0000000000  0.0000000000  0.0000000000  1.0000000000
* d-type functions
    4    4
          0.25400000
          0.62800000
          1.55100000
          0.09520000
  1.0000000000  0.0000000000  0.0000000000  0.0000000000
  0.0000000000  1.0000000000  0.0000000000  0.0000000000
  0.0000000000  0.0000000000  1.0000000000  0.0000000000
  0.0000000000  0.0000000000  0.0000000000  1.0000000000
* f-type functions
    3    3
          0.42300000
          1.08900000
          0.21700000
  1.0000000000  0.0000000000  0.0000000000
  0.0000000000  1.0000000000  0.0000000000
  0.0000000000  0.0000000000  1.0000000000
* g-type functions
    2    2
          0.82700000
          0.37800000
  1.0000000000  0.0000000000
  0.0000000000  1.0000000000

/Ar.aug-cc-pVQZ.Woon.17s12p4d3f2g.7s6p4d3f2g.
D.E. Woon, T.H. Dunning. J. Chem. Phys. 98 (1993) 1358-1371. doi:10.1063/1.464303
ARGON (17s,12p,4d,3f,2g) -> [7s,6p,4d,3f,2g]
    18.0   4
* s-type functions
   17    7
     950600.00000000
     142300.00000000
      32360.00000000
       9145.00000000
       2970.00000000
       1064.00000000
        410.80000000
        168.00000000
         71.99000000
         31.67000000
         12.89000000
          5.92900000
          2.67800000
          0.94160000
          0.42390000
          0.17140000
          0.06100000
  0.0000227545 -6.4620100e-6  2.0205600e-6  0.0000000000  0.0000000000  0.0000000000  0.0000000000
  0.0001769450 -0.0000502346  0.0000156851  0.0000000000  0.0000000000  0.0000000000  0.0000000000
  0.0009312820 -0.0002648040  0.0000828617  0.0000000000  0.0000000000  0.0000000000  0.0000000000
  0.0039286000 -0.0011189500  0.0003492640  0.0000000000  0.0000000000  0.0000000000  0.0000000000
  0.0142064000 -0.0040827600  0.0012797600  0.0000000000  0.0000000000  0.0000000000  0.0000000000
  0.0448114000 -0.0131216000  0.0041036500  0.0000000000  0.0000000000  0.0000000000  0.0000000000
  0.1210010000 -0.0372855000  0.0117789000  0.0000000000  0.0000000000  0.0000000000  0.0000000000
  0.2605790000 -0.0894709000  0.0283868000  0.0000000000  0.0000000000  0.0000000000  0.0000000000
  0.3813640000 -0.1680540000  0.0552406000  0.0000000000  0.0000000000  0.0000000000  0.0000000000
  0.2760580000 -0.1795940000  0.0607492000  0.0000000000  0.0000000000  0.0000000000  0.0000000000
  0.0505179000  0.1029530000 -0.0362012000  0.0000000000  0.0000000000  0.0000000000  0.0000000000
 -0.0035986600  0.5626300000 -0.2753980000  0.0000000000  0.0000000000  0.0000000000  0.0000000000
  0.0021879800  0.4503550000 -0.3628450000  0.0000000000  0.0000000000  0.0000000000  0.0000000000
 -0.0008623590  0.0460607000  0.2731180000  1.0000000000  0.0000000000  0.0000000000  0.0000000000
  0.0004052260 -0.0060369100  0.6828990000  0.0000000000  1.0000000000  0.0000000000  0.0000000000
 -0.0001161630  0.0018874400  0.2834170000  0.0000000000  0.0000000000  1.0000000000  0.0000000000
  0.0000000000  0.0000000000  0.0000000000  0.0000000000  0.0000000000  0.0000000000  1.0000000000
* p-type functions
   12    6
       1890.00000000
        447.80000000
        144.60000000
         54.46000000
         22.51000000
          9.77400000
          4.36800000
          1.95900000
          0.82600000
          0.32970000
          0.12420000
          0.04350000
  0.0004957520 -0.0001388630  0.0000000000  0.0000000000  0.0000000000  0.0000000000
  0.0042517200 -0.0011887000  0.0000000000  0.0000000000  0.0000000000  0.0000000000
  0.0223277000 -0.0063255300  0.0000000000  0.0000000000  0.0000000000  0.0000000000
  0.0830878000 -0.0238813000  0.0000000000  0.0000000000  0.0000000000  0.0000000000
  0.2171100000 -0.0649238000  0.0000000000  0.0000000000  0.0000000000  0.0000000000
  0.3745070000 -0.1154440000  0.0000000000  0.0000000000  0.0000000000  0.0000000000
  0.3664450000 -0.1236510000  0.0000000000  0.0000000000  0.0000000000  0.0000000000
  0.1292450000  0.0649055000  0.0000000000  0.0000000000  0.0000000000  0.0000000000
  0.0069224900  0.4036330000  1.0000000000  0.0000000000  0.0000000000  0.0000000000
  0.0008361490  0.4905920000  0.0000000000  1.0000000000  0.0000000000  0.0000000000
 -0.0001526660  0.2085280000  0.0000000000  0.0000000000  1.0000000000  0.0000000000
  0.0000000000  0.0000000000  0.0000000000  0.0000000000  0.0000000000  1.0000000000
* d-type functions
    4    4
          0.31100000
          0.76300000
          1.87300000
          0.11600000
  1.0000000000  0.0000000000  0.0000000000  0.0000000000
  0.0000000000  1.0000000000  0.0000000000  0.0000000000
  0.0000000000  0.0000000000  1.0000000000  0.0000000000
  0.0000000000  0.0000000000  0.0000000000  1.0000000000
* f-type functions
    3    3
          0.54300000
          1.32500000
          0.29400000
  1.0000000000  0.0000000000  0.0000000000
  0.0000000000  1.0000000000  0.0000000000
  0.0000000000  0.0000000000  1.0000000000
* g-type functions
    2    2
          1.00700000
          0.45900000
  1.0000000000  0.0000000000
  0.0000000000  1.0000000000

/Sc.aug-cc-pVQZ.Balabanov.23s19p12d4f3g2h.9s8p6d4f3g2h.
N.B. Balabanov, K.A. Peterson. J. Chem. Phys. 123 (2005) 064107. doi:10.1063/1.1998907
SCANDIUM (23s,19p,12d,4f,3g,2h) -> [9s,8p,6d,4f,3g,2h]
    21.0   5
* s-type functions
   23    9
    8417909.00000000
    1260312.00000000
     286798.40000000
      81234.69000000
      26503.11000000
       9568.70100000
       3732.49700000
       1548.42200000
        675.54200000
        307.25220000
        144.66720000
         70.04387000
         34.32250000
         15.61224000
          7.74372200
          3.84426000
          1.71976600
          0.83252300
          0.38556400
          0.09670000
          0.04777800
          0.02236300
          0.01047000
  1.9812920e-6 -1.1479260e-6  2.2219600e-7 -5.3502850e-8 -9.1409930e-8 -1.4450750e-7 -1.6079920e-7  0.0000000000  0.0000000000
  1.5406970e-5 -8.9292590e-6  1.7297990e-6 -4.1644190e-7 -7.2707750e-7 -1.1676810e-6 -1.2164610e-6  0.0000000000  0.0000000000
  8.1060650e-5 -4.6963820e-5  9.0880010e-6 -2.1884990e-6 -3.7024490e-6 -5.8102010e-6 -6.6598940e-6  0.0000000000  0.0000000000
  0.0003423943 -0.0001985315  3.8486220e-5 -9.2646280e-6 -1.6334680e-5 -0.0000264162 -2.6704990e-5  0.0000000000  0.0000000000
  0.0012469900 -0.0007230932  0.0001399997 -3.3717110e-5 -0.0000564236 -8.7814070e-5 -0.0001039947  0.0000000000  0.0000000000
  0.0040564250 -0.0023588220  0.0004585975 -0.0001103886 -0.0001968190 -0.0003207912 -0.0003133995  0.0000000000  0.0000000000
  0.0120059600 -0.0070081480  0.0013645880 -0.0003287051 -0.0005428811 -0.0008363750 -0.0010298840  0.0000000000  0.0000000000
  0.0323594400 -0.0191240700  0.0037737390 -0.0009084250 -0.0016426920 -0.0027036400 -0.0025306330  0.0000000000  0.0000000000
  0.0781997200 -0.0472892200  0.0094938870 -0.0022882040 -0.0037097520 -0.0056339600 -0.0073359170  0.0000000000  0.0000000000
  0.1617396000 -0.1032480000  0.0217461100 -0.0052384620 -0.0096992290 -0.0162265100 -0.0141458700  0.0000000000  0.0000000000
  0.2618480000 -0.1861960000  0.0422852800 -0.0102154700 -0.0158935000 -0.0233642600 -0.0345149600  0.0000000000  0.0000000000
  0.2748284000 -0.2480547000  0.0654061000 -0.0158170700 -0.0314993700 -0.0552329200 -0.0385925100  0.0000000000  0.0000000000
  0.1419647000 -0.1614781000  0.0475973200 -0.0116294500 -0.0115392000 -0.0088077710 -0.0556050600  0.0000000000  0.0000000000
  0.0704617600  0.1779183000 -0.0816033000  0.0201343200  0.0142678900 -0.0002060869  0.1025062000  0.0000000000  0.0000000000
  0.1288392000  0.5324076000 -0.3283980000  0.0840508600  0.1977719000  0.3882857000  0.2265527000  0.0000000000  0.0000000000
  0.0926935200  0.3752830000 -0.3654561000  0.0984825000  0.0949321600  0.0974343000  0.6017289000  0.0000000000  0.0000000000
  0.0122994900  0.0519812300  0.2102218000 -0.0683852300  0.0267895000  0.0068585690 -1.4029740000  0.0000000000  0.0000000000
 -0.0004588239 -0.0040290530  0.6856793000 -0.2353627000 -0.9351082000 -2.3215700000 -0.8478364000  0.0000000000  0.0000000000
  0.0001722703  0.0003794092  0.3684308000 -0.2776984000  0.1820725000  2.6665800000  3.0947890000  0.0000000000  0.0000000000
 -5.4107450e-5 -0.0004006692  0.0205079800  0.2987423000  2.0774230000  0.1898281000 -5.7927330000  0.0000000000  0.0000000000
  4.8928750e-5  0.0003219248 -0.0064107760  0.6193723000 -1.1139440000 -2.6840650000  6.9441580000  0.0000000000  0.0000000000
 -9.5554370e-6 -7.6906320e-5  0.0030217660  0.2563270000 -0.6910434000  2.0437010000 -3.0064840000  1.0000000000  0.0000000000
  0.0000000000  0.0000000000  0.0000000000  0.0000000000  0.0000000000  0.0000000000  0.0000000000  0.0000000000  1.0000000000
* p-type functions
   19    8
      22640.97000000
       5357.54500000
       1740.37300000
        666.61630000
        283.63840000
        129.79760000
         62.67956000
         31.50441000
         16.23525000
          8.51832400
          4.51900500
          2.36659100
          1.21523500
          0.61434800
          0.30074500
          0.12600400
          0.05484000
          0.02355700
          0.01012000
  0.0000120000 -0.0000040000  0.0000010000  0.0000010000  0.0000020000 -0.0000020000  0.0000000000  0.0000000000
  0.0001070000 -0.0000350000  0.0000090000  0.0000100000  0.0000200000 -0.0000290000  0.0000000000  0.0000000000
  0.0006250000 -0.0002050000  0.0000500000  0.0000600000  0.0001280000 -0.0001300000  0.0000000000  0.0000000000
  0.0028300000 -0.0009320000  0.0002270000  0.0002740000  0.0005340000 -0.0007520000  0.0000000000  0.0000000000
  0.0105300000 -0.0034840000  0.0008530000  0.0010250000  0.0021640000 -0.0022120000  0.0000000000  0.0000000000
  0.0328810000 -0.0110190000  0.0026860000  0.0032500000  0.0063070000 -0.0088930000  0.0000000000  0.0000000000
  0.0858840000 -0.0294150000  0.0072250000  0.0086740000  0.0183770000 -0.0182620000  0.0000000000  0.0000000000
  0.1800300000 -0.0637130000  0.0155900000  0.0188660000  0.0360160000 -0.0530410000  0.0000000000  0.0000000000
  0.2892240000 -0.1060850000  0.0263030000  0.0314660000  0.0694300000 -0.0599390000  0.0000000000  0.0000000000
  0.3279100000 -0.1286380000  0.0317770000  0.0386630000  0.0719490000 -0.1556420000  0.0000000000  0.0000000000
  0.2101980000 -0.0530120000  0.0124830000  0.0149230000  0.0577890000  0.0095720000  0.0000000000  0.0000000000
  0.0546800000  0.1740260000 -0.0526270000 -0.0596700000 -0.1752840000  0.0918980000  0.0000000000  0.0000000000
  0.0018530000  0.3925500000 -0.1140250000 -0.1347060000 -0.3373290000  1.2567100000  0.0000000000  0.0000000000
 -0.0014170000  0.3965140000 -0.1463710000 -0.1728090000 -0.5644270000 -1.0111150000  0.0000000000  0.0000000000
 -0.0009530000  0.1765440000 -0.0138630000 -0.0806980000  1.1633800000 -1.3688360000  0.0000000000  0.0000000000
 -0.0000510000  0.0191110000  0.3524440000  0.5542640000  0.5658350000  2.3777820000  0.0000000000  0.0000000000
 -0.0000210000  0.0000750000  0.5504540000  0.5500070000 -0.9715060000 -1.1539840000  0.0000000000  0.0000000000
  0.0000040000  0.0003040000  0.2261050000  0.0385330000 -0.0853610000 -0.2094090000  1.0000000000  0.0000000000
  0.0000000000  0.0000000000  0.0000000000  0.0000000000  0.0000000000  0.0000000000  0.0000000000  1.0000000000
* d-type functions
   12    6
        145.46800000
         43.41880000
         16.57680000
          6.97111000
          3.13347000
          1.45768000
          0.67453800
          0.30516200
          0.13411300
          0.05727000
          0.02335400
          0.00952000
  0.0004940000 -0.0005050000 -0.0006670000  0.0008360000  0.0000000000  0.0000000000
  0.0041980000 -0.0042930000 -0.0055930000  0.0084950000  0.0000000000  0.0000000000
  0.0189670000 -0.0194750000 -0.0259900000  0.0334810000  0.0000000000  0.0000000000
  0.0584080000 -0.0606310000 -0.0791400000  0.1270110000  0.0000000000  0.0000000000
  0.1376050000 -0.1436610000 -0.1936220000  0.2482810000  0.0000000000  0.0000000000
  0.2314700000 -0.2292940000 -0.2899810000  0.4455630000  0.0000000000  0.0000000000
  0.2965300000 -0.2619730000 -0.1702510000 -0.5406450000  0.0000000000  0.0000000000
  0.3052000000 -0.0530060000  0.6126870000 -0.8783940000  0.0000000000  0.0000000000
  0.2380750000  0.4119990000  0.4817940000  1.4431180000  0.0000000000  0.0000000000
  0.1073860000  0.4831900000 -0.6794480000 -0.4690810000  0.0000000000  0.0000000000
  0.0117330000  0.1071880000 -0.2771730000 -0.3989850000  1.0000000000  0.0000000000
  0.0000000000  0.0000000000  0.0000000000  0.0000000000  0.0000000000  1.0000000000
* f-type functions
    4    4
          1.41670000
          0.39920000
          0.11250000
          0.03128000
  1.0000000000  0.0000000000  0.0000000000  0.0000000000
  0.0000000000  1.0000000000  0.0000000000  0.0000000000
  0.0000000000  0.0000000000  1.0000000000  0.0000000000
  0.0000000000  0.0000000000  0.0000000000  1.0000000000
* g-type functions
    3    3
          0.99630000
          0.25730000
          0.07236000
  1.0000000000  0.0000000000  0.0000000000
  0.0000000000  1.0000000000  0.0000000000
  0.0000000000  0.0000000000  1.0000000000
* h-type functions
    2    2
          0.50160000
          0.12264000
  1.0000000000  0.0000000000
  0.0000000000  1.0000000000

/Ti.aug-cc-pVQZ.Balabanov.23s19p12d4f3g2h.9s8p6d4f3g2h.
N.B. Balabanov, K.A. Peterson. J. Chem. Phys. 123 (2005) 064107. doi:10.1063/1.1998907
TITANIUM (23s,19p,12d,4f,3g,2h) -> [9s,8p,6d,4f,3g,2h]
    22.0   5
* s-type functions
   23    9
    9317034.00000000
    1394971.00000000
     317453.10000000
      89921.00000000
      29338.16000000
      10592.66000000
       4132.05600000
       1714.23500000
        747.91510000
        340.19910000
        160.20600000
         77.58851000
         38.04489000
         17.35362000
          8.64206200
          4.30440400
          1.93771800
          0.93659400
          0.43262400
          0.10735200
          0.05203400
          0.02403800
          0.01110000
  1.9678840e-6 -1.1300070e-6  2.2527350e-7 -5.3184330e-8 -9.7118720e-8 -1.5336440e-7 -1.7645260e-7  0.0000000000  0.0000000000
  1.5301980e-5 -8.7894160e-6  1.7536310e-6 -4.1398550e-7 -7.7339700e-7 -1.2342950e-6 -1.3144010e-6  0.0000000000  0.0000000000
  8.0504030e-5 -4.6226230e-5  9.2130520e-6 -2.1751530e-6 -3.9310520e-6 -6.1771880e-6 -7.3554640e-6  0.0000000000  0.0000000000
  0.0003400302 -0.0001954047  3.9012420e-5 -9.2095670e-6 -1.7383230e-5 -2.7872530e-5 -2.8637620e-5  0.0000000000  0.0000000000
  0.0012383490 -0.0007117000  0.0001419184 -3.3507610e-5 -5.9865360e-5 -9.3551990e-5 -0.0001156551  0.0000000000  0.0000000000
  0.0040284750 -0.0023217550  0.0004648635 -0.0001097393 -0.0002095853 -0.0003378352 -0.0003330732  0.0000000000  0.0000000000
  0.0119250800 -0.0068995110  0.0013835440 -0.0003267006 -0.0005756482 -0.0008935475 -0.0011551560  0.0000000000  0.0000000000
  0.0321560100 -0.0188376500  0.0038273540 -0.0009036567 -0.0017515950 -0.0028423530 -0.0026598320  0.0000000000  0.0000000000
  0.0777862000 -0.0466397600  0.0096391910 -0.0022772570 -0.0039351200 -0.0060523320 -0.0083320360  0.0000000000  0.0000000000
  0.1612030000 -0.1020764000  0.0221171900 -0.0052267560 -0.0103849000 -0.0170469000 -0.0146261100  0.0000000000  0.0000000000
  0.2618826000 -0.1848693000  0.0431495400 -0.0102170700 -0.0169110000 -0.0254980600 -0.0403089000  0.0000000000  0.0000000000
  0.2766541000 -0.2479601000  0.0670348100 -0.0159146800 -0.0341098900 -0.0579114900 -0.0374584200  0.0000000000  0.0000000000
  0.1442968000 -0.1634863000  0.0494642400 -0.0118281400 -0.0122043700 -0.0127179100 -0.0737595900  0.0000000000  0.0000000000
  0.0699313100  0.1779147000 -0.0833345600  0.0201199900  0.0139753500  0.0062607620  0.1443268000  0.0000000000  0.0000000000
  0.1259449000  0.5351738000 -0.3384435000  0.0852658400  0.2176212000  0.4080306000  0.2119031000  0.0000000000  0.0000000000
  0.0902583000  0.3752822000 -0.3674069000  0.0969348900  0.0953270800  0.1284258000  0.7474187000  0.0000000000  0.0000000000
  0.0120040100  0.0521703800  0.2247056000 -0.0708267200  0.0178252400 -0.1231286000 -2.0310800000  0.0000000000  0.0000000000
 -0.0003976168 -0.0038631920  0.6878815000 -0.2359740000 -1.0163420000 -2.2673310000  0.1922693000  0.0000000000  0.0000000000
  0.0001425444  0.0002845374  0.3594435000 -0.2629613000  0.3107026000  2.8075070000  2.2877680000  0.0000000000  0.0000000000
 -4.1966640e-5 -0.0003500414  0.0193369500  0.3011214000  1.9917860000 -0.3028009000 -5.1681350000  0.0000000000  0.0000000000
  4.8242130e-5  0.0003192906 -0.0059978190  0.6125074000 -1.1429550000 -2.0712270000  6.4603230000  0.0000000000  0.0000000000
 -4.6768980e-6 -0.0000561397  0.0028280640  0.2571368000 -0.6206923000  1.8036250000 -2.9155510000  1.0000000000  0.0000000000
  0.0000000000  0.0000000000  0.0000000000  0.0000000000  0.0000000000  0.0000000000  0.0000000000  0.0000000000  1.0000000000
* p-type functions
   19    8
      25537.33000000
       6042.24300000
       1962.65300000
        751.73380000
        319.88330000
        146.43000000
         70.74861000
         35.59088000
         18.36893000
          9.65865500
          5.13673000
          2.69887200
          1.38970300
          0.70316300
          0.34412300
          0.14136100
          0.06086300
          0.02590700
          0.01103000
  0.0000120000 -0.0000040000  0.0000010000  0.0000010000  0.0000020000 -0.0000030000  0.0000000000  0.0000000000
  0.0001040000 -0.0000350000  0.0000080000  0.0000100000  0.0000200000 -0.0000280000  0.0000000000  0.0000000000
  0.0006070000 -0.0002030000  0.0000490000  0.0000610000  0.0001260000 -0.0001340000  0.0000000000  0.0000000000
  0.0027510000 -0.0009250000  0.0002210000  0.0002750000  0.0005260000 -0.0007360000  0.0000000000  0.0000000000
  0.0102660000 -0.0034700000  0.0008360000  0.0010340000  0.0021510000 -0.0022930000  0.0000000000  0.0000000000
  0.0321800000 -0.0110200000  0.0026410000  0.0032830000  0.0062570000 -0.0087520000  0.0000000000  0.0000000000
  0.0844860000 -0.0295770000  0.0071510000  0.0088290000  0.0184550000 -0.0192260000  0.0000000000  0.0000000000
  0.1783320000 -0.0645740000  0.0155300000  0.0193080000  0.0362470000 -0.0525890000  0.0000000000  0.0000000000
  0.2885740000 -0.1084580000  0.0264790000  0.0326120000  0.0709200000 -0.0658940000  0.0000000000  0.0000000000
  0.3287580000 -0.1319100000  0.0319800000  0.0399770000  0.0718270000 -0.1481120000  0.0000000000  0.0000000000
  0.2115410000 -0.0530890000  0.0125610000  0.0152990000  0.0592010000 -0.0241240000  0.0000000000  0.0000000000
  0.0555190000  0.1781250000 -0.0529940000 -0.0626200000 -0.1842720000  0.1769790000  0.0000000000  0.0000000000
  0.0020200000  0.3957010000 -0.1130390000 -0.1382880000 -0.3296530000  1.1584280000  0.0000000000  0.0000000000
 -0.0014290000  0.3927280000 -0.1436980000 -0.1763480000 -0.5457640000 -0.9634580000  0.0000000000  0.0000000000
 -0.0009410000  0.1744770000 -0.0103360000 -0.0554040000  1.1454310000 -1.3245080000  0.0000000000  0.0000000000
 -0.0000530000  0.0189460000  0.3547360000  0.5592910000  0.5526250000  2.2913730000  0.0000000000  0.0000000000
 -0.0000170000 -0.0003280000  0.5481010000  0.5331150000 -0.9642600000 -1.1129320000  0.0000000000  0.0000000000
  0.0000030000  0.0003760000  0.2252960000  0.0381720000 -0.0882400000 -0.2156310000  1.0000000000  0.0000000000
  0.0000000000  0.0000000000  0.0000000000  0.0000000000  0.0000000000  0.0000000000  0.0000000000  1.0000000000
* d-type functions
   12    6
        196.94900000
         58.83720000
         22.56540000
          9.57566000
          4.31859000
          2.02327000
          0.94677800
          0.43387600
          0.19227400
          0.08150200
          0.03228500
          0.01279000
  0.0003820000 -0.0003880000 -0.0006220000 -0.0006960000  0.0000000000  0.0000000000
  0.0033680000 -0.0034280000 -0.0054930000 -0.0070890000  0.0000000000  0.0000000000
  0.0162420000 -0.0165980000 -0.0269680000 -0.0310130000  0.0000000000  0.0000000000
  0.0523770000 -0.0541720000 -0.0895330000 -0.1200550000  0.0000000000  0.0000000000
  0.1299280000 -0.1366600000 -0.2283740000 -0.2789100000  0.0000000000  0.0000000000
  0.2312330000 -0.2294490000 -0.3312580000 -0.3789610000  0.0000000000  0.0000000000
  0.3035610000 -0.2549950000 -0.1063490000  0.5737430000  0.0000000000  0.0000000000
  0.3092680000 -0.0476610000  0.6310360000  0.7279500000  0.0000000000  0.0000000000
  0.2316440000  0.3948800000  0.3966210000 -1.2976560000  0.0000000000  0.0000000000
  0.1015400000  0.4964530000 -0.6180090000  0.3203760000  0.0000000000  0.0000000000
  0.0116840000  0.1257560000 -0.2695920000  0.5230100000  1.0000000000  0.0000000000
  0.0000000000  0.0000000000  0.0000000000  0.0000000000  0.0000000000  1.0000000000
* f-type functions
    4    4
          2.26260000
          0.64180000
          0.18210000
          0.05541000
  1.0000000000  0.0000000000  0.0000000000  0.0000000000
  0.0000000000  1.0000000000  0.0000000000  0.0000000000
  0.0000000000  0.0000000000  1.0000000000  0.0000000000
  0.0000000000  0.0000000000  0.0000000000  1.0000000000
* g-type functions
    3    3
          1.57320000
          0.40020000
          0.12566000
  1.0000000000  0.0000000000  0.0000000000
  0.0000000000  1.0000000000  0.0000000000
  0.0000000000  0.0000000000  1.0000000000
* h-type functions
    2    2
          0.87210000
          0.27242000
  1.0000000000  0.0000000000
  0.0000000000  1.0000000000

/V.aug-cc-pVQZ.Balabanov.23s19p12d4f3g2h.9s8p6d4f3g2h.
N.B. Balabanov, K.A. Peterson. J. Chem. Phys. 123 (2005) 064107. doi:10.1063/1.1998907
VANADIUM (23s,19p,12d,4f,3g,2h) -> [9s,8p,6d,4f,3g,2h]
    23.0   5
* s-type functions
   23    9
   10251780.00000000
    1534920.00000000
     349300.90000000
      98942.05000000
      32281.36000000
      11655.27000000
       4546.54800000
       1886.18500000
        822.94170000
        374.34390000
        176.30690000
         85.40661000
         41.90435000
         19.15525000
[...]
         14.46500000
          6.93480000
          3.32990000
          1.56000000
          0.49291000
          0.23525000
          0.10037000
          0.03815200
  0.0000036000 -0.0000011000  0.0000004000 -0.0000001000  0.0000000000  0.0000000000  0.0000000000  0.0000000000
  0.0000279000 -0.0000087000  0.0000034000 -0.0000010000  0.0000000000  0.0000000000  0.0000000000  0.0000000000
  0.0001466000 -0.0000459000  0.0000181000 -0.0000053000  0.0000000000  0.0000000000  0.0000000000  0.0000000000
  0.0006190000 -0.0001939000  0.0000763000 -0.0000223000  0.0000000000  0.0000000000  0.0000000000  0.0000000000
  0.0022514000 -0.0007064000  0.0002781000 -0.0000814000  0.0000000000  0.0000000000  0.0000000000  0.0000000000
  0.0073030000 -0.0023030000  0.0009068000 -0.0002649000  0.0000000000  0.0000000000  0.0000000000  0.0000000000
  0.0214442000 -0.0068425000  0.0026999000 -0.0007906000  0.0000000000  0.0000000000  0.0000000000  0.0000000000
  0.0568122000 -0.0186335000  0.0073726000 -0.0021539000  0.0000000000  0.0000000000  0.0000000000  0.0000000000
  0.1320807000 -0.0459512000  0.0183360000 -0.0053812000  0.0000000000  0.0000000000  0.0000000000  0.0000000000
  0.2523469000 -0.0992193000  0.0401812000 -0.0117694000  0.0000000000  0.0000000000  0.0000000000  0.0000000000
  0.3459296000 -0.1728813000  0.0724864000 -0.0214629000  0.0000000000  0.0000000000  0.0000000000  0.0000000000
  0.2623890000 -0.1884973000  0.0835626000 -0.0246904000  0.0000000000  0.0000000000  0.0000000000  0.0000000000
  0.0667938000  0.0422610000 -0.0207592000  0.0057774000  0.0000000000  0.0000000000  0.0000000000  0.0000000000
 -0.0003332000  0.4936791000 -0.3183535000  0.1015209000  0.0000000000  0.0000000000  0.0000000000  0.0000000000
  0.0017275000  0.5052818000 -0.4798333000  0.1578570000  0.0000000000  0.0000000000  0.0000000000  0.0000000000
 -0.0008299000  0.1184150000  0.0592819000 -0.0224219000  0.0000000000  0.0000000000  0.0000000000  0.0000000000
  0.0003578000  0.0019567000  0.7174116000 -0.3290776000  0.0000000000  0.0000000000  0.0000000000  0.0000000000
 -0.0001666000  0.0019648000  0.4638636000 -0.3873443000  0.0000000000  0.0000000000  0.0000000000  0.0000000000
  0.0000677000 -0.0004644000  0.0289974000  0.3400877000  1.0000000000  0.0000000000  0.0000000000  0.0000000000
 -0.0000404000  0.0002459000 -0.0068054000  0.6589356000  0.0000000000  1.0000000000  0.0000000000  0.0000000000
  0.0000110000 -0.0000735000  0.0016438000  0.2492161000  0.0000000000  0.0000000000  1.0000000000  0.0000000000
  0.0000000000  0.0000000000  0.0000000000  0.0000000000  0.0000000000  0.0000000000  0.0000000000  1.0000000000
* p-type functions
   17    7
      25217.00000000
       5969.90000000
       1938.90000000
        741.66000000
        314.50000000
        143.31000000
         68.65000000
         33.99500000
         17.18500000
          8.57400000
          4.22060000
          2.05210000
          0.96156000
          0.42151000
          0.17626000
          0.07066300
          0.02656900
  0.0000610000 -0.0000241000  0.0000058000  0.0000000000  0.0000000000  0.0000000000  0.0000000000
  0.0005424000 -0.0002152000  0.0000520000  0.0000000000  0.0000000000  0.0000000000  0.0000000000
  0.0031174000 -0.0012386000  0.0002998000  0.0000000000  0.0000000000  0.0000000000  0.0000000000
  0.0135977000 -0.0054607000  0.0013201000  0.0000000000  0.0000000000  0.0000000000  0.0000000000
  0.0472788000 -0.0192936000  0.0046857000  0.0000000000  0.0000000000  0.0000000000  0.0000000000
  0.1297856000 -0.0549715000  0.0133737000  0.0000000000  0.0000000000  0.0000000000  0.0000000000
  0.2657383000 -0.1177952000  0.0289245000  0.0000000000  0.0000000000  0.0000000000  0.0000000000
  0.3673544000 -0.1740782000  0.0429454000  0.0000000000  0.0000000000  0.0000000000  0.0000000000
  0.2747805000 -0.0955798000  0.0223272000  0.0000000000  0.0000000000  0.0000000000  0.0000000000
  0.0791679000  0.2059714000 -0.0636031000  0.0000000000  0.0000000000  0.0000000000  0.0000000000
  0.0051349000  0.4735431000 -0.1436147000  0.0000000000  0.0000000000  0.0000000000  0.0000000000
  0.0013319000  0.3831922000 -0.1447293000  0.0000000000  0.0000000000  0.0000000000  0.0000000000
 -0.0002033000  0.0920872000  0.0630380000  0.0000000000  0.0000000000  0.0000000000  0.0000000000
  0.0001281000  0.0024332000  0.4117109000  1.0000000000  0.0000000000  0.0000000000  0.0000000000
 -0.0000609000  0.0011938000  0.4972700000  0.0000000000  1.0000000000  0.0000000000  0.0000000000
  0.0000143000 -0.0000880000  0.1947168000  0.0000000000  0.0000000000  1.0000000000  0.0000000000
  0.0000000000  0.0000000000  0.0000000000  0.0000000000  0.0000000000  0.0000000000  1.0000000000
* d-type functions
   13    5
       1143.40000000
        345.33000000
        134.46000000
         59.56700000
         28.28300000
         14.06100000
          7.13900000
          3.61480000
          1.80720000
          0.86944000
          0.37036000
          0.15300000
          0.06190000
  0.0001301000  0.0000000000  0.0000000000  0.0000000000  0.0000000000
  0.0012573000  0.0000000000  0.0000000000  0.0000000000  0.0000000000
  0.0072882000  0.0000000000  0.0000000000  0.0000000000  0.0000000000
  0.0288647000  0.0000000000  0.0000000000  0.0000000000  0.0000000000
  0.0838987000  0.0000000000  0.0000000000  0.0000000000  0.0000000000
  0.1819771000  0.0000000000  0.0000000000  0.0000000000  0.0000000000
  0.2826057000  0.0000000000  0.0000000000  0.0000000000  0.0000000000
  0.3220453000  0.0000000000  0.0000000000  0.0000000000  0.0000000000
  0.2581633000  0.0000000000  0.0000000000  0.0000000000  0.0000000000
  0.1180850000  1.0000000000  0.0000000000  0.0000000000  0.0000000000
  0.0195318000  0.0000000000  1.0000000000  0.0000000000  0.0000000000
  0.0000000000  0.0000000000  0.0000000000  1.0000000000  0.0000000000
  0.0000000000  0.0000000000  0.0000000000  0.0000000000  1.0000000000
* f-type functions
    3    3
          0.28400000
          0.70970000
          0.12400000
  1.0000000000  0.0000000000  0.0000000000
  0.0000000000  1.0000000000  0.0000000000
  0.0000000000  0.0000000000  1.0000000000
* g-type functions
    2    2
          0.57300000
          0.26300000
  1.0000000000  0.0000000000
  0.0000000000  1.0000000000

/Br.aug-cc-pVQZ.Wilson.22s17p13d3f2g.8s7p5d3f2g.
A.K. Wilson, D.E. Woon, K.A. Peterson, T.H. Dunning. J. Chem. Phys. 110 (1999) 7667-7676. doi:10.1063/1.478678
BROMINE (22s,17p,13d,3f,2g) -> [8s,7p,5d,3f,2g]
    35.0   4
* s-type functions
   22    8
   16475000.00000000
    2466600.00000000
     561310.00000000
     158990.00000000
      51869.00000000
      18726.00000000
       7303.60000000
       3029.10000000
       1320.80000000
        600.03000000
        281.90000000
        135.54000000
         64.87000000
         32.12900000
         16.03700000
          7.78490000
          3.72470000
          1.75830000
          0.58331000
          0.27856000
          0.11829000
          0.04427000
  0.0000034000 -0.0000011000  0.0000004000 -0.0000001000  0.0000000000  0.0000000000  0.0000000000  0.0000000000
  0.0000267000 -0.0000084000  0.0000033000 -0.0000010000  0.0000000000  0.0000000000  0.0000000000  0.0000000000
  0.0001404000 -0.0000441000  0.0000175000 -0.0000054000  0.0000000000  0.0000000000  0.0000000000  0.0000000000
  0.0005927000 -0.0001862000  0.0000740000 -0.0000227000  0.0000000000  0.0000000000  0.0000000000  0.0000000000
  0.0021561000 -0.0006783000  0.0002697000 -0.0000827000  0.0000000000  0.0000000000  0.0000000000  0.0000000000
  0.0069959000 -0.0022122000  0.0008799000 -0.0002694000  0.0000000000  0.0000000000  0.0000000000  0.0000000000
  0.0205645000 -0.0065752000  0.0026198000 -0.0008042000  0.0000000000  0.0000000000  0.0000000000  0.0000000000
  0.0545893000 -0.0179328000  0.0071671000 -0.0021949000  0.0000000000  0.0000000000  0.0000000000  0.0000000000
  0.1275226000 -0.0443321000  0.0178561000 -0.0054939000  0.0000000000  0.0000000000  0.0000000000  0.0000000000
  0.2459780000 -0.0963478000  0.0393960000 -0.0120960000  0.0000000000  0.0000000000  0.0000000000  0.0000000000
  0.3436508000 -0.1696814000  0.0717102000 -0.0222623000  0.0000000000  0.0000000000  0.0000000000  0.0000000000
  0.2702530000 -0.1920769000  0.0858877000 -0.0266063000  0.0000000000  0.0000000000  0.0000000000  0.0000000000
  0.0744795000  0.0208731000 -0.0103861000  0.0027580000  0.0000000000  0.0000000000  0.0000000000  0.0000000000
  0.0008787000  0.4744996000 -0.3040135000  0.1016803000  0.0000000000  0.0000000000  0.0000000000  0.0000000000
  0.0015755000  0.5214907000 -0.4933178000  0.1704132000  0.0000000000  0.0000000000  0.0000000000  0.0000000000
 -0.0007602000  0.1348001000  0.0160890000 -0.0062220000  0.0000000000  0.0000000000  0.0000000000  0.0000000000
  0.0003211000  0.0036614000  0.7146686000 -0.3452570000  0.0000000000  0.0000000000  0.0000000000  0.0000000000
 -0.0001586000  0.0018840000  0.4904795000 -0.4234840000  0.0000000000  0.0000000000  0.0000000000  0.0000000000
  0.0000659000 -0.0004582000  0.0337573000  0.3354720000  1.0000000000  0.0000000000  0.0000000000  0.0000000000
 -0.0000374000  0.0002165000 -0.0067925000  0.6779724000  0.0000000000  1.0000000000  0.0000000000  0.0000000000
  0.0000100000 -0.0000678000  0.0016916000  0.2523080000  0.0000000000  0.0000000000  1.0000000000  0.0000000000
  0.0000000000  0.0000000000  0.0000000000  0.0000000000  0.0000000000  0.0000000000  0.0000000000  1.0000000000
* p-type functions
   17    7
      26607.00000000
       6298.20000000
       2045.20000000
        782.16000000
        331.63000000
        151.11000000
         72.39200000
         35.86200000
         18.13400000
          9.04300000
          4.45000000
          2.16610000
          0.99628000
          0.45443000
          0.19404000
          0.07899700
          0.03051300
  0.0000619000 -0.0000248000  0.0000064000  0.0000000000  0.0000000000  0.0000000000  0.0000000000
  0.0005499000 -0.0002212000  0.0000572000  0.0000000000  0.0000000000  0.0000000000  0.0000000000
  0.0031620000 -0.0012736000  0.0003297000  0.0000000000  0.0000000000  0.0000000000  0.0000000000
  0.0137979000 -0.0056179000  0.0014562000  0.0000000000  0.0000000000  0.0000000000  0.0000000000
  0.0479812000 -0.0198600000  0.0051591000  0.0000000000  0.0000000000  0.0000000000  0.0000000000
  0.1315710000 -0.0565531000  0.0147617000  0.0000000000  0.0000000000  0.0000000000  0.0000000000
  0.2685861000 -0.1209479000  0.0317694000  0.0000000000  0.0000000000  0.0000000000  0.0000000000
  0.3683473000 -0.1773098000  0.0470680000  0.0000000000  0.0000000000  0.0000000000  0.0000000000
  0.2711363000 -0.0921472000  0.0223871000  0.0000000000  0.0000000000  0.0000000000  0.0000000000
  0.0762222000  0.2187683000 -0.0720254000  0.0000000000  0.0000000000  0.0000000000  0.0000000000
  0.0046749000  0.4854670000 -0.1626429000  0.0000000000  0.0000000000  0.0000000000  0.0000000000
  0.0012565000  0.3721970000 -0.1496503000  0.0000000000  0.0000000000  0.0000000000  0.0000000000
 -0.0002357000  0.0776907000  0.1064517000  0.0000000000  0.0000000000  0.0000000000  0.0000000000
  0.0001332000  0.0006541000  0.4360266000  1.0000000000  0.0000000000  0.0000000000  0.0000000000
 -0.0000689000  0.0017998000  0.4680523000  0.0000000000  1.0000000000  0.0000000000  0.0000000000
  0.0000138000 -0.0000655000  0.1691513000  0.0000000000  0.0000000000  1.0000000000  0.0000000000
  0.0000000000  0.0000000000  0.0000000000  0.0000000000  0.0000000000  0.0000000000  1.0000000000
* d-type functions
   13    5
       1289.60000000
        389.75000000
        151.76000000
         67.22300000
         31.91300000
         15.85700000
          8.05450000
          4.08870000
          2.05560000
          0.99509000
          0.42313000
          0.17790000
          0.08290000
  0.0001190000  0.0000000000  0.0000000000  0.0000000000  0.0000000000
  0.0011551000  0.0000000000  0.0000000000  0.0000000000  0.0000000000
  0.0067648000  0.0000000000  0.0000000000  0.0000000000  0.0000000000
  0.0273017000  0.0000000000  0.0000000000  0.0000000000  0.0000000000
  0.0809298000  0.0000000000  0.0000000000  0.0000000000  0.0000000000
  0.1794011000  0.0000000000  0.0000000000  0.0000000000  0.0000000000
  0.2840086000  0.0000000000  0.0000000000  0.0000000000  0.0000000000
  0.3266797000  0.0000000000  0.0000000000  0.0000000000  0.0000000000
  0.2584900000  0.0000000000  0.0000000000  0.0000000000  0.0000000000
  0.1128946000  1.0000000000  0.0000000000  0.0000000000  0.0000000000
  0.0172605000  0.0000000000  1.0000000000  0.0000000000  0.0000000000
  0.0000000000  0.0000000000  0.0000000000  1.0000000000  0.0000000000
  0.0000000000  0.0000000000  0.0000000000  0.0000000000  1.0000000000
* f-type functions
    3    3
          0.34070000
          0.82570000
          0.17480000
  1.0000000000  0.0000000000  0.0000000000
  0.0000000000  1.0000000000  0.0000000000
  0.0000000000  0.0000000000  1.0000000000
* g-type functions
    2    2
          0.64910000
          0.31100000
  1.0000000000  0.0000000000
  0.0000000000  1.0000000000

/Kr.aug-cc-pVQZ.Wilson.22s17p13d3f2g.8s7p5d3f2g.
A.K. Wilson, D.E. Woon, K.A. Peterson, T.H. Dunning. J. Chem. Phys. 110 (1999) 7667-7676. doi:10.1063/1.478678
KRYPTON (22s,17p,13d,3f,2g) -> [8s,7p,5d,3f,2g]
    36.0   4
* s-type functions
   22    8
   18226110.00000000
    2728802.00000000
     620997.70000000
     175899.60000000
      57387.50000000
      20717.18000000
       8078.89000000
       3349.51700000
       1459.78100000
        662.89390000
        311.39220000
        149.93750000
         72.49825000
         35.56935000
         17.76663000
          8.71238300
          4.14497100
          1.96964900
          0.67995200
          0.32450200
          0.13744100
          0.05038800
  0.0000032000 -0.0000010000  0.0000004000 -0.0000001000  0.0000000000  0.0000000000  0.0000000000  0.0000000000
  0.0000252000 -0.0000079000  0.0000032000 -0.0000010000  0.0000000000  0.0000000000  0.0000000000  0.0000000000
  0.0001328000 -0.0000418000  0.0000168000 -0.0000053000  0.0000000000  0.0000000000  0.0000000000  0.0000000000
  0.0005607000 -0.0001766000  0.0000709000 -0.0000226000  0.0000000000  0.0000000000  0.0000000000  0.0000000000
  0.0020401000 -0.0006434000  0.0002582000 -0.0000823000  0.0000000000  0.0000000000  0.0000000000  0.0000000000
  0.0066235000 -0.0020999000  0.0008433000 -0.0002684000  0.0000000000  0.0000000000  0.0000000000  0.0000000000
  0.0194996000 -0.0062453000  0.0025115000 -0.0008014000  0.0000000000  0.0000000000  0.0000000000  0.0000000000
  0.0519364000 -0.0170804000  0.0068921000 -0.0021937000  0.0000000000  0.0000000000  0.0000000000  0.0000000000
  0.1221166000 -0.0423815000  0.0172220000 -0.0055074000  0.0000000000  0.0000000000  0.0000000000  0.0000000000
  0.2383653000 -0.0928679000  0.0383159000 -0.0122266000  0.0000000000  0.0000000000  0.0000000000  0.0000000000
  0.3407051000 -0.1657390000  0.0705438000 -0.0227617000  0.0000000000  0.0000000000  0.0000000000  0.0000000000
  0.2792855000 -0.1955088000  0.0880717000 -0.0283606000  0.0000000000  0.0000000000  0.0000000000  0.0000000000
  0.0840992000 -0.0016409000  0.0006328000 -0.0007565000  0.0000000000  0.0000000000  0.0000000000  0.0000000000
  0.0025042000  0.4530071000 -0.2881065000  0.1001365000  0.0000000000  0.0000000000  0.0000000000  0.0000000000
  0.0013574000  0.5370751000 -0.5049797000  0.1815332000  0.0000000000  0.0000000000  0.0000000000  0.0000000000
 -0.0006591000  0.1528971000 -0.0267773000  0.0111867000  0.0000000000  0.0000000000  0.0000000000  0.0000000000
  0.0002701000  0.0057411000  0.7098718000 -0.3575843000  0.0000000000  0.0000000000  0.0000000000  0.0000000000
 -0.0001436000  0.0017414000  0.5158020000 -0.4572305000  0.0000000000  0.0000000000  0.0000000000  0.0000000000
  0.0000611000 -0.0004336000  0.0387545000  0.3286805000  1.0000000000  0.0000000000  0.0000000000  0.0000000000
 -0.0000330000  0.0001775000 -0.0067160000  0.6951597000  0.0000000000  1.0000000000  0.0000000000  0.0000000000
  0.0000088000 -0.0000609000  0.0017479000  0.2568473000  0.0000000000  0.0000000000  1.0000000000  0.0000000000
  0.0000000000  0.0000000000  0.0000000000  0.0000000000  0.0000000000  0.0000000000  0.0000000000  1.0000000000
* p-type functions
   17    7
      28600.83000000
       6770.99100000
       2199.04900000
        841.17960000
        356.76630000
        162.63620000
         77.96604000
         38.66149000
         19.57679000
          9.79176100
          4.83538300
          2.36812500
          1.08999600
          0.50458800
          0.21845500
          0.08995900
          0.03445700
  0.0000605000 -0.0000246000  0.0000067000  0.0000000000  0.0000000000  0.0000000000  0.0000000000
  0.0005378000 -0.0002192000  0.0000596000  0.0000000000  0.0000000000  0.0000000000  0.0000000000
  0.0030934000 -0.0012628000  0.0003432000  0.0000000000  0.0000000000  0.0000000000  0.0000000000
  0.0135150000 -0.0055756000  0.0015190000  0.0000000000  0.0000000000  0.0000000000  0.0000000000
  0.0470959000 -0.0197546000  0.0053881000  0.0000000000  0.0000000000  0.0000000000  0.0000000000
  0.1296200000 -0.0564488000  0.0154935000  0.0000000000  0.0000000000  0.0000000000  0.0000000000
  0.2661108000 -0.1214923000  0.0335176000  0.0000000000  0.0000000000  0.0000000000  0.0000000000
  0.3678058000 -0.1794907000  0.0501911000  0.0000000000  0.0000000000  0.0000000000  0.0000000000
  0.2740372000 -0.0962314000  0.0244550000  0.0000000000  0.0000000000  0.0000000000  0.0000000000
  0.0787113000  0.2163190000 -0.0752953000  0.0000000000  0.0000000000  0.0000000000  0.0000000000
  0.0049842000  0.4899721000 -0.1760534000  0.0000000000  0.0000000000  0.0000000000  0.0000000000
  0.0012267000  0.3726758000 -0.1570724000  0.0000000000  0.0000000000  0.0000000000  0.0000000000
 -0.0002448000  0.0750088000  0.1304579000  0.0000000000  0.0000000000  0.0000000000  0.0000000000
  0.0001432000 -0.0002246000  0.4502209000  1.0000000000  0.0000000000  0.0000000000  0.0000000000
 -0.0000622000  0.0013232000  0.4513291000  0.0000000000  1.0000000000  0.0000000000  0.0000000000
  0.0000170000 -0.0002713000  0.1542519000  0.0000000000  0.0000000000  1.0000000000  0.0000000000
  0.0000000000  0.0000000000  0.0000000000  0.0000000000  0.0000000000  0.0000000000  1.0000000000
* d-type functions
   13    5
       1437.77900000
        434.26850000
        168.92700000
         74.77754000
         35.51602000
         17.67105000
          9.00461100
          4.59477300
          2.32648600
          1.13324700
          0.48130700
          0.20530000
          0.10390000
  0.0001108000  0.0000000000  0.0000000000  0.0000000000  0.0000000000
  0.0010828000  0.0000000000  0.0000000000  0.0000000000  0.0000000000
  0.0064065000  0.0000000000  0.0000000000  0.0000000000  0.0000000000
  0.0262379000  0.0000000000  0.0000000000  0.0000000000  0.0000000000
  0.0788235000  0.0000000000  0.0000000000  0.0000000000  0.0000000000
  0.1770677000  0.0000000000  0.0000000000  0.0000000000  0.0000000000
  0.2839622000  0.0000000000  0.0000000000  0.0000000000  0.0000000000
  0.3294702000  0.0000000000  0.0000000000  0.0000000000  0.0000000000
  0.2589001000  0.0000000000  0.0000000000  0.0000000000  0.0000000000
  0.1096205000  1.0000000000  0.0000000000  0.0000000000  0.0000000000
  0.0158905000  0.0000000000  1.0000000000  0.0000000000  0.0000000000
  0.0000000000  0.0000000000  0.0000000000  1.0000000000  0.0000000000
  0.0000000000  0.0000000000  0.0000000000  0.0000000000  1.0000000000
* f-type functions
    3    3
          0.41300000
          0.95570000
          0.22560000
  1.0000000000  0.0000000000  0.0000000000
  0.0000000000  1.0000000000  0.0000000000
  0.0000000000  0.0000000000  1.0000000000
* g-type functions
    2    2
          0.73950000
          0.35900000
  1.0000000000  0.0000000000
  0.0000000000  1.0000000000
