************************************************************************
* This file is part of OpenMolcas.                                     *
*                                                                      *
* OpenMolcas is free software; you can redistribute it and/or modify   *
* it under the terms of the GNU Lesser General Public License, v. 2.1. *
* OpenMolcas is distributed in the hope that it will be useful, but it *
* is provided "as is" and without any express or implied warranties.   *
* For more details see the full text of the license in the file        *
* LICENSE or in <http://www.gnu.org/licenses/>.                        *
************************************************************************

#Hamiltonian NRH
#Nucleus UNK
#Contraction CCC
#AllElectron AE_

************************************************************************
* This file has been generated from Basis Set Exchange data:           *
*   https://www.basissetexchange.org                                   *
* Version: 1  (Data from ccRepo/Grant Hill)                            *
************************************************************************

/H.aug-cc-pVDZ.Kendall.5s2p.3s2p.
R.A. Kendall, T.H. Dunning, R.J. Harrison. J. Chem. Phys. 96 (1992) 6796-6806. doi:10.1063/1.462569
HYDROGEN (5s,2p) -> [3s,2p]
     1.0   1
* s-type functions
    5    3
         13.01000000
          1.96200000
          0.44460000
          0.12200000
          0.02974000
  0.0196850000  0.0000000000  0.0000000000
  0.1379770000  0.0000000000  0.0000000000
  0.4781480000  0.0000000000  0.0000000000
  0.5012400000  1.0000000000  0.0000000000
  0.0000000000  0.0000000000  1.0000000000
* p-type functions
    2    2
          0.72700000
          0.14100000
  1.0000000000  0.0000000000
  0.0000000000  1.0000000000

/He.aug-cc-pVDZ.Woon.5s2p.3s2p.
D.E. Woon, T.H. Dunning. J. Chem. Phys. 100 (1994) 2975-2988. doi:10.1063/1.466439
HELIUM (5s,2p) -> [3s,2p]
     2.0   1
* s-type functions
    5    3
         38.36000000
          5.77000000
          1.24000000
          0.29760000
          0.07255000
  0.0238090000  0.0000000000  0.0000000000
  0.1548910000  0.0000000000  0.0000000000
  0.4699870000  0.0000000000  0.0000000000
  0.5130270000  1.0000000000  0.0000000000
  0.0000000000  0.0000000000  1.0000000000
* p-type functions
    2    2
          1.27500000
          0.24730000
  1.0000000000  0.0000000000
  0.0000000000  1.0000000000

/Li.aug-cc-pVDZ.Prascher.10s5p2d.4s3p2d.
B.P. Prascher, D.E. Woon, K.A. Peterson, T.H. Dunning, A.K. Wilson. Theor. Chem. Acc. 128 (2011) 69-82. doi:10.1007/s00214-010-0764-0
LITHIUM (10s,5p,2d) -> [4s,3p,2d]
     3.0   2
* s-type functions
   10    4
       1469.00000000
        220.50000000
         50.26000000
         14.24000000
          4.58100000
          1.58000000
          0.56400000
          0.07345000
          0.02805000
          0.00860000
  0.0007660000 -0.0001200000  0.0000000000  0.0000000000
  0.0058920000 -0.0009230000  0.0000000000  0.0000000000
  0.0296710000 -0.0046890000  0.0000000000  0.0000000000
  0.1091800000 -0.0176820000  0.0000000000  0.0000000000
  0.2827890000 -0.0489020000  0.0000000000  0.0000000000
  0.4531230000 -0.0960090000  0.0000000000  0.0000000000
  0.2747740000 -0.1363800000  0.0000000000  0.0000000000
  0.0097510000  0.5751020000  0.0000000000  0.0000000000
 -0.0031800000  0.5176610000  1.0000000000  0.0000000000
  0.0000000000  0.0000000000  0.0000000000  1.0000000000
* p-type functions
    5    3
          1.53400000
          0.27490000
          0.07362000
          0.02403000
          0.00580000
  0.0227840000  0.0000000000  0.0000000000
  0.1391070000  0.0000000000  0.0000000000
  0.5003750000  0.0000000000  0.0000000000
  0.5084740000  1.0000000000  0.0000000000
  0.0000000000  0.0000000000  1.0000000000
* d-type functions
    2    2
          0.11440000
          0.07330000
  1.0000000000  0.0000000000
  0.0000000000  1.0000000000

/Be.aug-cc-pVDZ.Prascher.10s5p2d.4s3p2d.
B.P. Prascher, D.E. Woon, K.A. Peterson, T.H. Dunning, A.K. Wilson. Theor. Chem. Acc. 128 (2011) 69-82. doi:10.1007/s00214-010-0764-0
BERYLLIUM (10s,5p,2d) -> [4s,3p,2d]
     4.0   2
* s-type functions
   10    4
       2940.00000000
        441.20000000
        100.50000000
         28.43000000
          9.16900000
          3.19600000
          1.15900000
          0.18110000
          0.05890000
          0.01790000
  0.0006800000 -0.0001230000  0.0000000000  0.0000000000
  0.0052360000 -0.0009660000  0.0000000000  0.0000000000
  0.0266060000 -0.0048310000  0.0000000000  0.0000000000
  0.0999930000 -0.0193140000  0.0000000000  0.0000000000
  0.2697020000 -0.0532800000  0.0000000000  0.0000000000
  0.4514690000 -0.1207230000  0.0000000000  0.0000000000
  0.2950740000 -0.1334350000  0.0000000000  0.0000000000
  0.0125870000  0.5307670000  0.0000000000  0.0000000000
 -0.0037560000  0.5801170000  1.0000000000  0.0000000000
  0.0000000000  0.0000000000  0.0000000000  1.0000000000
* p-type functions
    5    3
          3.61900000
          0.71100000
          0.19510000
          0.06018000
          0.01110000
  0.0291110000  0.0000000000  0.0000000000
  0.1693650000  0.0000000000  0.0000000000
  0.5134580000  0.0000000000  0.0000000000
  0.4793380000  1.0000000000  0.0000000000
  0.0000000000  0.0000000000  1.0000000000
* d-type functions
    2    2
          0.23540000
          0.07220000
  1.0000000000  0.0000000000
  0.0000000000  1.0000000000

/B.aug-cc-pVDZ.Kendall.10s5p2d.4s3p2d.
R.A. Kendall, T.H. Dunning, R.J. Harrison. J. Chem. Phys. 96 (1992) 6796-6806. doi:10.1063/1.462569
BORON (10s,5p,2d) -> [4s,3p,2d]
     5.0   2
* s-type functions
   10    4
       4570.00000000
        685.90000000
        156.50000000
         44.47000000
         14.48000000
          5.13100000
          1.89800000
          0.33290000
          0.10430000
          0.03105000
  0.0006960000 -0.0001390000  0.0000000000  0.0000000000
  0.0053530000 -0.0010970000  0.0000000000  0.0000000000
  0.0271340000 -0.0054440000  0.0000000000  0.0000000000
  0.1013800000 -0.0219160000  0.0000000000  0.0000000000
  0.2720550000 -0.0597510000  0.0000000000  0.0000000000
  0.4484030000 -0.1387320000  0.0000000000  0.0000000000
  0.2901230000 -0.1314820000  0.0000000000  0.0000000000
  0.0143220000  0.5395260000  0.0000000000  0.0000000000
 -0.0034860000  0.5807740000  1.0000000000  0.0000000000
  0.0000000000  0.0000000000  0.0000000000  1.0000000000
* p-type functions
    5    3
          6.00100000
          1.24100000
          0.33640000
          0.09538000
          0.02378000
  0.0354810000  0.0000000000  0.0000000000
  0.1980720000  0.0000000000  0.0000000000
  0.5052300000  0.0000000000  0.0000000000
  0.4794990000  1.0000000000  0.0000000000
  0.0000000000  0.0000000000  1.0000000000
* d-type functions
    2    2
          0.34300000
          0.09040000
  1.0000000000  0.0000000000
  0.0000000000  1.0000000000

/C.aug-cc-pVDZ.Kendall.10s5p2d.4s3p2d.
R.A. Kendall, T.H. Dunning, R.J. Harrison. J. Chem. Phys. 96 (1992) 6796-6806. doi:10.1063/1.462569
CARBON (10s,5p,2d) -> [4s,3p,2d]
     6.0   2
* s-type functions
   10    4
       6665.00000000
       1000.00000000
        228.00000000
         64.71000000
         21.06000000
          7.49500000
          2.79700000
          0.52150000
          0.15960000
          0.04690000
  0.0006920000 -0.0001460000  0.0000000000  0.0000000000
  0.0053290000 -0.0011540000  0.0000000000  0.0000000000
  0.0270770000 -0.0057250000  0.0000000000  0.0000000000
  0.1017180000 -0.0233120000  0.0000000000  0.0000000000
  0.2747400000 -0.0639550000  0.0000000000  0.0000000000
  0.4485640000 -0.1499810000  0.0000000000  0.0000000000
  0.2850740000 -0.1272620000  0.0000000000  0.0000000000
  0.0152040000  0.5445290000  0.0000000000  0.0000000000
 -0.0031910000  0.5804960000  1.0000000000  0.0000000000
  0.0000000000  0.0000000000  0.0000000000  1.0000000000
* p-type functions
    5    3
          9.43900000
          2.00200000
          0.54560000
          0.15170000
          0.04041000
  0.0381090000  0.0000000000  0.0000000000
  0.2094800000  0.0000000000  0.0000000000
  0.5085570000  0.0000000000  0.0000000000
  0.4688420000  1.0000000000  0.0000000000
  0.0000000000  0.0000000000  1.0000000000
* d-type functions
    2    2
          0.55000000
          0.15100000
  1.0000000000  0.0000000000
  0.0000000000  1.0000000000

/N.aug-cc-pVDZ.Kendall.10s5p2d.4s3p2d.
R.A. Kendall, T.H. Dunning, R.J. Harrison. J. Chem. Phys. 96 (1992) 6796-6806. doi:10.1063/1.462569
NITROGEN (10s,5p,2d) -> [4s,3p,2d]
     7.0   2
* s-type functions
   10    4
       9046.00000000
       1357.00000000
        309.30000000
         87.73000000
         28.56000000
         10.21000000
          3.83800000
          0.74660000
          0.22480000
          0.06124000
  0.0007000000 -0.0001530000  0.0000000000  0.0000000000
  0.0053890000 -0.0012080000  0.0000000000  0.0000000000
  0.0274060000 -0.0059920000  0.0000000000  0.0000000000
  0.1032070000 -0.0245440000  0.0000000000  0.0000000000
  0.2787230000 -0.0674590000  0.0000000000  0.0000000000
  0.4485400000 -0.1580780000  0.0000000000  0.0000000000
  0.2782380000 -0.1218310000  0.0000000000  0.0000000000
  0.0154400000  0.5490030000  0.0000000000  0.0000000000
 -0.0028640000  0.5788150000  1.0000000000  0.0000000000
  0.0000000000  0.0000000000  0.0000000000  1.0000000000
* p-type functions
    5    3
         13.55000000
          2.91700000
          0.79730000
          0.21850000
          0.05611000
  0.0399190000  0.0000000000  0.0000000000
  0.2171690000  0.0000000000  0.0000000000
  0.5103190000  0.0000000000  0.0000000000
  0.4622140000  1.0000000000  0.0000000000
  0.0000000000  0.0000000000  1.0000000000
* d-type functions
    2    2
          0.81700000
          0.23000000
  1.0000000000  0.0000000000
  0.0000000000  1.0000000000

/O.aug-cc-pVDZ.Kendall.10s5p2d.4s3p2d.
R.A. Kendall, T.H. Dunning, R.J. Harrison. J. Chem. Phys. 96 (1992) 6796-6806. doi:10.1063/1.462569
OXYGEN (10s,5p,2d) -> [4s,3p,2d]
     8.0   2
* s-type functions
   10    4
      11720.00000000
       1759.00000000
        400.80000000
        113.70000000
         37.03000000
         13.27000000
          5.02500000
          1.01300000
          0.30230000
          0.07896000
  0.0007100000 -0.0001600000  0.0000000000  0.0000000000
  0.0054700000 -0.0012630000  0.0000000000  0.0000000000
  0.0278370000 -0.0062670000  0.0000000000  0.0000000000
  0.1048000000 -0.0257160000  0.0000000000  0.0000000000
  0.2830620000 -0.0709240000  0.0000000000  0.0000000000
  0.4487190000 -0.1654110000  0.0000000000  0.0000000000
  0.2709520000 -0.1169550000  0.0000000000  0.0000000000
  0.0154580000  0.5573680000  0.0000000000  0.0000000000
 -0.0025850000  0.5727590000  1.0000000000  0.0000000000
  0.0000000000  0.0000000000  0.0000000000  1.0000000000
* p-type functions
    5    3
         17.70000000
          3.85400000
          1.04600000
          0.27530000
          0.06856000
  0.0430180000  0.0000000000  0.0000000000
  0.2289130000  0.0000000000  0.0000000000
  0.5087280000  0.0000000000  0.0000000000
  0.4605310000  1.0000000000  0.0000000000
  0.0000000000  0.0000000000  1.0000000000
* d-type functions
    2    2
          1.18500000
          0.33200000
  1.0000000000  0.0000000000
  0.0000000000  1.0000000000

/F.aug-cc-pVDZ.Kendall.10s5p2d.4s3p2d.
R.A. Kendall, T.H. Dunning, R.J. Harrison. J. Chem. Phys. 96 (1992) 6796-6806. doi:10.1063/1.462569
FLUORINE (10s,5p,2d) -> [4s,3p,2d]
     9.0   2
* s-type functions
   10    4
      14710.00000000
       2207.00000000
        502.80000000
        142.60000000
         46.47000000
         16.70000000
          6.35600000
          1.31600000
          0.38970000
          0.09863000
  0.0007210000 -0.0001650000  0.0000000000  0.0000000000
  0.0055530000 -0.0013080000  0.0000000000  0.0000000000
  0.0282670000 -0.0064950000  0.0000000000  0.0000000000
  0.1064440000 -0.0266910000  0.0000000000  0.0000000000
  0.2868140000 -0.0736900000  0.0000000000  0.0000000000
  0.4486410000 -0.1707760000  0.0000000000  0.0000000000
  0.2647610000 -0.1123270000  0.0000000000  0.0000000000
  0.0153330000  0.5628140000  0.0000000000  0.0000000000
 -0.0023320000  0.5687780000  1.0000000000  0.0000000000
  0.0000000000  0.0000000000  0.0000000000  1.0000000000
* p-type functions
    5    3
         22.67000000
          4.97700000
          1.34700000
          0.34710000
          0.08502000
  0.0448780000  0.0000000000  0.0000000000
  0.2357180000  0.0000000000  0.0000000000
  0.5085210000  0.0000000000  0.0000000000
  0.4581200000  1.0000000000  0.0000000000
  0.0000000000  0.0000000000  1.0000000000
* d-type functions
    2    2
          1.64000000
          0.46400000
  1.0000000000  0.0000000000
  0.0000000000  1.0000000000

/Ne.aug-cc-pVDZ.Kendall.10s5p2d.4s3p2d.
R.A. Kendall, T.H. Dunning, R.J. Harrison. J. Chem. Phys. 96 (1992) 6796-6806. doi:10.1063/1.462569
NEON (10s,5p,2d) -> [4s,3p,2d]
    10.0   2
* s-type functions
   10    4
      17880.00000000
       2683.00000000
        611.50000000
        173.50000000
         56.64000000
         20.42000000
          7.81000000
          1.65300000
          0.48690000
          0.12300000
  0.0007380000 -0.0001720000  0.0000000000  0.0000000000
  0.0056770000 -0.0013570000  0.0000000000  0.0000000000
  0.0288830000 -0.0067370000  0.0000000000  0.0000000000
  0.1085400000 -0.0276630000  0.0000000000  0.0000000000
  0.2909070000 -0.0762080000  0.0000000000  0.0000000000
  0.4483240000 -0.1752270000  0.0000000000  0.0000000000
  0.2580260000 -0.1070380000  0.0000000000  0.0000000000
  0.0150630000  0.5670500000  0.0000000000  0.0000000000
 -0.0021000000  0.5652160000  1.0000000000  0.0000000000
  0.0000000000  0.0000000000  0.0000000000  1.0000000000
* p-type functions
    5    3
         28.39000000
          6.27000000
          1.69500000
          0.43170000
          0.10640000
  0.0460870000  0.0000000000  0.0000000000
  0.2401810000  0.0000000000  0.0000000000
  0.5087440000  0.0000000000  0.0000000000
  0.4556600000  1.0000000000  0.0000000000
  0.0000000000  0.0000000000  1.0000000000
* d-type functions
    2    2
          2.20200000
          0.63100000
  1.0000000000  0.0000000000
  0.0000000000  1.0000000000

/Na.aug-cc-pVDZ.Prascher.13s9p2d.5s4p2d.
B.P. Prascher, D.E. Woon, K.A. Peterson, T.H. Dunning, A.K. Wilson. Theor. Chem. Acc. 128 (2011) 69-82. doi:10.1007/s00214-010-0764-0
SODIUM (13s,9p,2d) -> [5s,4p,2d]
    11.0   2
* s-type functions
   13    5
      31700.00000000
       4755.00000000
       1082.00000000
        306.40000000
         99.53000000
         35.42000000
         13.30000000
          4.39200000
          1.67600000
          0.58890000
          0.05640000
          0.02307000
          0.00720000
  0.0004588780 -0.0001121620  0.0000170160  0.0000000000  0.0000000000
  0.0035507000 -0.0008685120  0.0001306930  0.0000000000  0.0000000000
  0.0182618000 -0.0045133000  0.0006877840  0.0000000000  0.0000000000
  0.0716650000 -0.0181436000  0.0027235900  0.0000000000  0.0000000000
  0.2123460000 -0.0580799000  0.0089552900  0.0000000000  0.0000000000
  0.4162030000 -0.1376530000  0.0207832000  0.0000000000  0.0000000000
  0.3730200000 -0.1939080000  0.0319380000  0.0000000000  0.0000000000
  0.0625054000  0.0858009000 -0.0191368000  0.0000000000  0.0000000000
 -0.0062453200  0.6044190000 -0.1025950000  0.0000000000  0.0000000000
  0.0024337400  0.4417190000 -0.1989450000  0.0000000000  0.0000000000
 -0.0004423810  0.0130547000  0.6559520000  0.0000000000  0.0000000000
  0.0002419240 -0.0056808500  0.4311530000  1.0000000000  0.0000000000
  0.0000000000  0.0000000000  0.0000000000  0.0000000000  1.0000000000
* p-type functions
    9    4
        138.10000000
         32.24000000
          9.98500000
          3.48400000
          1.23100000
          0.41770000
          0.06513000
          0.02053000
          0.00570000
  0.0057964100 -0.0005815310  0.0000000000  0.0000000000
  0.0415756000 -0.0040730600  0.0000000000  0.0000000000
  0.1628730000 -0.0167937000  0.0000000000  0.0000000000
  0.3594010000 -0.0353268000  0.0000000000  0.0000000000
  0.4499880000 -0.0521971000  0.0000000000  0.0000000000
  0.2275070000 -0.0168359000  0.0000000000  0.0000000000
  0.0080824700  0.4346130000  0.0000000000  0.0000000000
 -0.0019629300  0.6582180000  1.0000000000  0.0000000000
  0.0000000000  0.0000000000  0.0000000000  1.0000000000
* d-type functions
    2    2
          0.09280000
          0.04800000
  1.0000000000  0.0000000000
  0.0000000000  1.0000000000

/Mg.aug-cc-pVDZ.Prascher.13s9p2d.5s4p2d.
B.P. Prascher, D.E. Woon, K.A. Peterson, T.H. Dunning, A.K. Wilson. Theor. Chem. Acc. 128 (2011) 69-82. doi:10.1007/s00214-010-0764-0
MAGNESIUM (13s,9p,2d) -> [5s,4p,2d]
    12.0   2
* s-type functions
   13    5
      47390.00000000
       7108.00000000
       1618.00000000
        458.40000000
        149.30000000
         53.59000000
         20.70000000
          8.38400000
          2.54200000
          0.87870000
          0.10770000
          0.03999000
          0.01420000
  0.0003460230 -0.0000877839  0.0000169628  0.0000000000  0.0000000000
  0.0026807700 -0.0006747250  0.0001298650  0.0000000000  0.0000000000
  0.0138367000 -0.0035560300  0.0006888310  0.0000000000  0.0000000000
  0.0551767000 -0.0142154000  0.0027353300  0.0000000000  0.0000000000
  0.1696600000 -0.0476748000  0.0093122400  0.0000000000  0.0000000000
  0.3647030000 -0.1148920000  0.0223265000  0.0000000000  0.0000000000
  0.4068560000 -0.2006760000  0.0411195000  0.0000000000  0.0000000000
  0.1350890000 -0.0341224000  0.0054564200  0.0000000000  0.0000000000
  0.0049088400  0.5704540000 -0.1340120000  0.0000000000  0.0000000000
  0.0002864600  0.5423090000 -0.2561760000  0.0000000000  0.0000000000
  0.0000264590  0.0218128000  0.6058560000  0.0000000000  0.0000000000
 -0.0000112708 -0.0082770000  0.5094460000  1.0000000000  0.0000000000
  0.0000000000  0.0000000000  0.0000000000  0.0000000000  1.0000000000
* p-type functions
    9    4
        179.90000000
         42.14000000
         13.13000000
          4.62800000
          1.67000000
          0.58570000
          0.13110000
          0.04112000
          0.01050000
  0.0053816100 -0.0008659480  0.0000000000  0.0000000000
  0.0392418000 -0.0061597800  0.0000000000  0.0000000000
  0.1574450000 -0.0261519000  0.0000000000  0.0000000000
  0.3585350000 -0.0570647000  0.0000000000  0.0000000000
  0.4572260000 -0.0873906000  0.0000000000  0.0000000000
  0.2159180000 -0.0122990000  0.0000000000  0.0000000000
  0.0066494800  0.5020850000  0.0000000000  0.0000000000
 -0.0001253040  0.5972450000  1.0000000000  0.0000000000
  0.0000000000  0.0000000000  0.0000000000  1.0000000000
* d-type functions
    2    2
          0.19320000
          0.06050000
  1.0000000000  0.0000000000
  0.0000000000  1.0000000000

/Al.aug-cc-pVDZ.Woon.13s9p2d.5s4p2d.
D.E. Woon, T.H. Dunning. J. Chem. Phys. 98 (1993) 1358-1371. doi:10.1063/1.464303
ALUMINIUM (13s,9p,2d) -> [5s,4p,2d]
    13.0   2
* s-type functions
   13    5
      64150.00000000
       9617.00000000
       2189.00000000
        620.50000000
        202.70000000
         73.15000000
         28.55000000
         11.77000000
          3.30000000
          1.17300000
          0.17520000
          0.06473000
          0.02310000
  0.0002902500 -0.0000758048  0.0000175078  0.0000000000  0.0000000000
  0.0022506400 -0.0005817910  0.0001342080  0.0000000000  0.0000000000
  0.0116459000 -0.0030811300  0.0007124420  0.0000000000  0.0000000000
  0.0467377000 -0.0123112000  0.0028433000  0.0000000000  0.0000000000
  0.1462990000 -0.0419781000  0.0097684200  0.0000000000  0.0000000000
  0.3302830000 -0.1033710000  0.0241850000  0.0000000000  0.0000000000
  0.4158610000 -0.1963080000  0.0474993000  0.0000000000  0.0000000000
  0.1892530000 -0.0830002000  0.0203621000  0.0000000000  0.0000000000
  0.0115889000  0.5410400000 -0.1587880000  0.0000000000  0.0000000000
 -0.0012838500  0.5787960000 -0.3116940000  0.0000000000  0.0000000000
  0.0004258830  0.0288147000  0.6201470000  0.0000000000  0.0000000000
 -0.0001992800 -0.0095379500  0.5209430000  1.0000000000  0.0000000000
  0.0000000000  0.0000000000  0.0000000000  0.0000000000  1.0000000000
* p-type functions
    9    4
        258.80000000
         60.89000000
         19.14000000
          6.88100000
          2.57400000
          0.95720000
          0.20990000
          0.05986000
          0.01530000
  0.0040684700 -0.0007480530  0.0000000000  0.0000000000
  0.0306815000 -0.0054579600  0.0000000000  0.0000000000
  0.1291490000 -0.0245371000  0.0000000000  0.0000000000
  0.3208310000 -0.0582138000  0.0000000000  0.0000000000
  0.4538150000 -0.0983756000  0.0000000000  0.0000000000
  0.2750660000 -0.0260064000  0.0000000000  0.0000000000
  0.0190807000  0.4640200000  0.0000000000  0.0000000000
 -0.0031284800  0.6488700000  1.0000000000  0.0000000000
  0.0000000000  0.0000000000  0.0000000000  1.0000000000
* d-type functions
    2    2
          0.18900000
          0.05350000
  1.0000000000  0.0000000000
  0.0000000000  1.0000000000

/Si.aug-cc-pVDZ.Woon.13s9p2d.5s4p2d.
D.E. Woon, T.H. Dunning. J. Chem. Phys. 98 (1993) 1358-1371. doi:10.1063/1.464303
SILICON (13s,9p,2d) -> [5s,4p,2d]
    14.0   2
* s-type functions
   13    5
      78860.00000000
      11820.00000000
       2692.00000000
        763.40000000
        249.60000000
         90.28000000
         35.29000000
         14.51000000
          4.05300000
          1.48200000
          0.25170000
          0.09243000
          0.03320000
  0.0002704430 -0.0000723177  0.0000185113  0.0000000000  0.0000000000
  0.0020971700 -0.0005551160  0.0001422360  0.0000000000  0.0000000000
  0.0108506000 -0.0029380500  0.0007521850  0.0000000000  0.0000000000
  0.0436754000 -0.0117687000  0.0030227900  0.0000000000  0.0000000000
  0.1376530000 -0.0402907000  0.0103677000  0.0000000000  0.0000000000
  0.3166440000 -0.1006090000  0.0262563000  0.0000000000  0.0000000000
  0.4185810000 -0.1965280000  0.0523989000  0.0000000000  0.0000000000
  0.2102120000 -0.1023820000  0.0290959000  0.0000000000  0.0000000000
  0.0144952000  0.5271900000 -0.1780030000  0.0000000000  0.0000000000
 -0.0020359000  0.5932510000 -0.3468740000  0.0000000000  0.0000000000
  0.0006241860  0.0332652000  0.6230200000  0.0000000000  0.0000000000
 -0.0002828720 -0.0097366200  0.5377120000  1.0000000000  0.0000000000
  0.0000000000  0.0000000000  0.0000000000  0.0000000000  1.0000000000
* p-type functions
    9    4
        315.90000000
         74.42000000
         23.48000000
          8.48800000
          3.21700000
          1.22900000
          0.29640000
          0.08768000
          0.02500000
  0.0039265600 -0.0008583020  0.0000000000  0.0000000000
  0.0298811000 -0.0063032800  0.0000000000  0.0000000000
  0.1272120000 -0.0288255000  0.0000000000  0.0000000000
  0.3209430000 -0.0694560000  0.0000000000  0.0000000000
  0.4554290000 -0.1194930000  0.0000000000  0.0000000000
  0.2685630000 -0.0199581000  0.0000000000  0.0000000000
  0.0188336000  0.5102680000  0.0000000000  0.0000000000
 -0.0026243100  0.6003820000  1.0000000000  0.0000000000
  0.0000000000  0.0000000000  0.0000000000  1.0000000000
* d-type functions
    2    2
          0.27500000
          0.08230000
  1.0000000000  0.0000000000
  0.0000000000  1.0000000000

/P.aug-cc-pVDZ.Woon.13s9p2d.5s4p2d.
D.E. Woon, T.H. Dunning. J. Chem. Phys. 98 (1993) 1358-1371. doi:10.1063/1.464303
PHOSPHORUS (13s,9p,2d) -> [5s,4p,2d]
    15.0   2
* s-type functions
   13    5
      94840.00000000
      14220.00000000
       3236.00000000
        917.10000000
        299.50000000
        108.10000000
         42.18000000
         17.28000000
          4.85800000
          1.81800000
          0.33720000
          0.12320000
          0.04170000
  0.0002555090 -0.0000696939  0.0000191199  0.0000000000  0.0000000000
  0.0019819300 -0.0005352660  0.0001472230  0.0000000000  0.0000000000
  0.0102760000 -0.0028370900  0.0007779120  0.0000000000  0.0000000000
  0.0414823000 -0.0113983000  0.0031454600  0.0000000000  0.0000000000
  0.1319840000 -0.0392929000  0.0108200000  0.0000000000  0.0000000000
  0.3086620000 -0.0996364000  0.0279957000  0.0000000000  0.0000000000
  0.4206470000 -0.1979830000  0.0563978000  0.0000000000  0.0000000000
  0.2228780000 -0.1148600000  0.0358190000  0.0000000000  0.0000000000
  0.0164035000  0.5185950000 -0.1933870000  0.0000000000  0.0000000000
 -0.0025425500  0.6018470000 -0.3720970000  0.0000000000  0.0000000000
  0.0007480500  0.0368612000  0.6242460000  0.0000000000  0.0000000000
 -0.0003309630 -0.0097075900  0.5517210000  1.0000000000  0.0000000000
  0.0000000000  0.0000000000  0.0000000000  0.0000000000  1.0000000000
* p-type functions
    9    4
        370.50000000
         87.33000000
         27.59000000
         10.00000000
          3.82500000
          1.49400000
          0.39210000
          0.11860000
          0.03430000
  0.0039500500 -0.0009598320  0.0000000000  0.0000000000
  0.0302492000 -0.0071117700  0.0000000000  0.0000000000
  0.1295540000 -0.0327122000  0.0000000000  0.0000000000
  0.3275940000 -0.0795784000  0.0000000000  0.0000000000
  0.4569920000 -0.1350160000  0.0000000000  0.0000000000
  0.2530860000 -0.0091058500  0.0000000000  0.0000000000
  0.0168798000  0.5378020000  0.0000000000  0.0000000000
 -0.0020709300  0.5690660000  1.0000000000  0.0000000000
  0.0000000000  0.0000000000  0.0000000000  1.0000000000
* d-type functions
    2    2
          0.37300000
          0.11300000
  1.0000000000  0.0000000000
  0.0000000000  1.0000000000

/S.aug-cc-pVDZ.Woon.13s9p2d.5s4p2d.
D.E. Woon, T.H. Dunning. J. Chem. Phys. 98 (1993) 1358-1371. doi:10.1063/1.464303
SULFUR (13s,9p,2d) -> [5s,4p,2d]
    16.0   2
* s-type functions
   13    5
     110800.00000000
      16610.00000000
       3781.00000000
       1071.00000000
        349.80000000
        126.30000000
         49.26000000
         20.16000000
          5.72000000
          2.18200000
          0.43270000
          0.15700000
          0.05070000
  0.0002476350 -0.0000687039  0.0000199077  0.0000000000  0.0000000000
  0.0019202600 -0.0005276810  0.0001534830  0.0000000000  0.0000000000
  0.0099619200 -0.0027967100  0.0008095030  0.0000000000  0.0000000000
  0.0402975000 -0.0112651000  0.0032897400  0.0000000000  0.0000000000
  0.1286040000 -0.0388834000  0.0112967000  0.0000000000  0.0000000000
  0.3034800000 -0.0995025000  0.0296385000  0.0000000000  0.0000000000
  0.4214320000 -0.1997400000  0.0599851000  0.0000000000  0.0000000000
  0.2307810000 -0.1233600000  0.0413248000  0.0000000000  0.0000000000
  0.0178971000  0.5131940000 -0.2074740000  0.0000000000  0.0000000000
 -0.0029751600  0.6071200000 -0.3928890000  0.0000000000  0.0000000000
  0.0008495220  0.0396753000  0.6328400000  0.0000000000  0.0000000000
 -0.0003679360 -0.0094686400  0.5569240000  1.0000000000  0.0000000000
  0.0000000000  0.0000000000  0.0000000000  0.0000000000  1.0000000000
* p-type functions
    9    4
        399.70000000
         94.19000000
         29.75000000
         10.77000000
          4.11900000
          1.62500000
          0.47260000
          0.14070000
          0.03990000
  0.0044754100 -0.0011625100  0.0000000000  0.0000000000
  0.0341708000 -0.0086566400  0.0000000000  0.0000000000
  0.1442500000 -0.0390886000  0.0000000000  0.0000000000
  0.3539280000 -0.0934625000  0.0000000000  0.0000000000
  0.4590850000 -0.1479940000  0.0000000000  0.0000000000
  0.2063830000  0.0301904000  0.0000000000  0.0000000000
  0.0102141000  0.5615730000  0.0000000000  0.0000000000
 -0.0000603122  0.5347760000  1.0000000000  0.0000000000
  0.0000000000  0.0000000000  0.0000000000  1.0000000000
* d-type functions
    2    2
          0.47900000
          0.15200000
  1.0000000000  0.0000000000
  0.0000000000  1.0000000000

/Cl.aug-cc-pVDZ.Woon.13s9p2d.5s4p2d.
D.E. Woon, T.H. Dunning. J. Chem. Phys. 98 (1993) 1358-1371. doi:10.1063/1.464303
CHLORINE (13s,9p,2d) -> [5s,4p,2d]
    17.0   2
* s-type functions
   13    5
     127900.00000000
      19170.00000000
       4363.00000000
       1236.00000000
        403.60000000
        145.70000000
         56.81000000
         23.23000000
          6.64400000
          2.57500000
          0.53710000
          0.19380000
          0.06080000
  0.0002411530 -0.0000678922  0.0000204986  0.0000000000  0.0000000000
  0.0018709500 -0.0005218360  0.0001582980  0.0000000000  0.0000000000
  0.0097082700 -0.0027651300  0.0008336390  0.0000000000  0.0000000000
  0.0393153000 -0.0111537000  0.0033988000  0.0000000000  0.0000000000
  0.1259320000 -0.0385919000  0.0116738000  0.0000000000  0.0000000000
  0.2993410000 -0.0994848000  0.0309622000  0.0000000000  0.0000000000
  0.4218860000 -0.2013920000  0.0629533000  0.0000000000  0.0000000000
  0.2372010000 -0.1303130000  0.0460257000  0.0000000000  0.0000000000
  0.0191531000  0.5094430000 -0.2193120000  0.0000000000  0.0000000000
 -0.0033479200  0.6107250000 -0.4087730000  0.0000000000  0.0000000000
  0.0009298830  0.0421549000  0.6384650000  0.0000000000  0.0000000000
 -0.0003963790 -0.0092342700  0.5623620000  1.0000000000  0.0000000000
  0.0000000000  0.0000000000  0.0000000000  0.0000000000  1.0000000000
* p-type functions
    9    4
        417.60000000
         98.33000000
         31.04000000
         11.19000000
          4.24900000
          1.62400000
          0.53220000
          0.16200000
          0.04660000
  0.0052598200 -0.0014357000  0.0000000000  0.0000000000
  0.0398332000 -0.0107796000  0.0000000000  0.0000000000
  0.1646550000 -0.0470075000  0.0000000000  0.0000000000
  0.3873220000 -0.1110300000  0.0000000000  0.0000000000
  0.4570720000 -0.1532750000  0.0000000000  0.0000000000
  0.1516360000  0.0894609000  0.0000000000  0.0000000000
  0.0018161500  0.5794440000  0.0000000000  0.0000000000
  0.0018829600  0.4832720000  1.0000000000  0.0000000000
  0.0000000000  0.0000000000  0.0000000000  1.0000000000
* d-type functions
    2    2
          0.60000000
          0.19600000
  1.0000000000  0.0000000000
  0.0000000000  1.0000000000

/Ar.aug-cc-pVDZ.Woon.13s9p2d.5s4p2d.
D.E. Woon, T.H. Dunning. J. Chem. Phys. 98 (1993) 1358-1371. doi:10.1063/1.464303
ARGON (13s,9p,2d) -> [5s,4p,2d]
    18.0   2
* s-type functions
   13    5
     145700.00000000
      21840.00000000
       4972.00000000
       1408.00000000
        459.70000000
        165.90000000
         64.69000000
         26.44000000
          7.62800000
          2.99600000
          0.65040000
          0.23370000
          0.07090000
  0.0002367000 -0.0000674910  0.0000210457  0.0000000000  0.0000000000
  0.0018352300 -0.0005185220  0.0001625650  0.0000000000  0.0000000000
  0.0095286000 -0.0027482500  0.0008554630  0.0000000000  0.0000000000
  0.0386283000 -0.0111007000  0.0034974500  0.0000000000  0.0000000000
  0.1240810000 -0.0384820000  0.0120156000  0.0000000000  0.0000000000
  0.2964710000 -0.0997599000  0.0321368000  0.0000000000  0.0000000000
  0.4220680000 -0.2030880000  0.0655279000  0.0000000000  0.0000000000
  0.2417110000 -0.1356080000  0.0499370000  0.0000000000  0.0000000000
  0.0200509000  0.5071950000 -0.2297690000  0.0000000000  0.0000000000
 -0.0036100000  0.6128980000 -0.4210060000  0.0000000000  0.0000000000
  0.0009756070  0.0442968000  0.6423310000  0.0000000000  0.0000000000
 -0.0004113160 -0.0089927800  0.5675400000  1.0000000000  0.0000000000
  0.0000000000  0.0000000000  0.0000000000  0.0000000000  1.0000000000
* p-type functions
    9    4
        453.70000000
        106.80000000
         33.73000000
         12.13000000
          4.59400000
          1.67800000
          0.59090000
          0.18520000
          0.05330000
  0.0057055500 -0.0016065500  0.0000000000  0.0000000000
  0.0430460000 -0.0121714000  0.0000000000  0.0000000000
  0.1765910000 -0.0520789000  0.0000000000  0.0000000000
  0.4068630000 -0.1237370000  0.0000000000  0.0000000000
  0.4525490000 -0.1516190000  0.0000000000  0.0000000000
  0.1228010000  0.1424250000  0.0000000000  0.0000000000
 -0.0044599600  0.5845010000  0.0000000000  0.0000000000
  0.0020522500  0.4375400000  1.0000000000  0.0000000000
  0.0000000000  0.0000000000  0.0000000000  1.0000000000
* d-type functions
    2    2
          0.73800000
          0.24000000
  1.0000000000  0.0000000000
  0.0000000000  1.0000000000

/Sc.aug-cc-pVDZ.Balabanov.21s17p9d3f.7s6p4d2f.
N.B. Balabanov, K.A. Peterson. J. Chem. Phys. 123 (2005) 064107. doi:10.1063/1.1998907
SCANDIUM (21s,17p,9d,3f) -> [7s,6p,4d,2f]
    21.0   3
* s-type functions
   21    7
    2715278.00000000
     406598.40000000
      92530.04000000
      26207.92000000
       8549.42900000
       3085.97500000
       1203.17200000
        498.48690000
        216.73600000
         97.87476000
         45.20433000
         20.21187000
          9.57475100
          4.54034600
          1.99568700
          0.94221500
          0.41784500
          0.09576100
          0.05135100
          0.02387800
          0.01110000
  8.1472210e-6 -4.7221090e-6  9.1399050e-7 -2.2019510e-7 -3.7572380e-7  0.0000000000  0.0000000000
  6.3347880e-5 -3.6718290e-5  7.1085130e-6 -1.7114190e-6 -2.9819070e-6  0.0000000000  0.0000000000
  0.0003330384 -0.0001930883  3.7381260e-5 -9.0084690e-6 -1.5225860e-5  0.0000000000  0.0000000000
  0.0014040550 -0.0008146870  0.0001578828 -3.7999970e-5 -6.6846860e-5  0.0000000000  0.0000000000
  0.0050817250 -0.0029555260  0.0005737686 -0.0001383227 -0.0002313129  0.0000000000  0.0000000000
  0.0162692600 -0.0095200350  0.0018592440 -0.0004473692 -0.0007959729  0.0000000000  0.0000000000
  0.0462457700 -0.0274685800  0.0054331820 -0.0013106910 -0.0021619610  0.0000000000  0.0000000000
  0.1137223000 -0.0699152800  0.0142538700 -0.0034298600 -0.0062064590  0.0000000000  0.0000000000
  0.2257636000 -0.1499251000  0.0324614400 -0.0078475790 -0.0126190500  0.0000000000  0.0000000000
  0.3106700000 -0.2459153000  0.0600345400 -0.0144718900 -0.0273945900  0.0000000000  0.0000000000
  0.2191906000 -0.2401293000  0.0691610500 -0.0169066900 -0.0233651600  0.0000000000  0.0000000000
  0.0721587900  0.0356798700 -0.0211308400  0.0053961150 -0.0057346270  0.0000000000  0.0000000000
  0.1187030000  0.4915023000 -0.2666832000  0.0667106200  0.1536025000  0.0000000000  0.0000000000
  0.1220532000  0.4911381000 -0.4367591000  0.1178356000  0.1447100000  0.0000000000  0.0000000000
  0.0213679500  0.0912063300  0.0649824300 -0.0273813400  0.0935969900  0.0000000000  0.0000000000
 -0.0005357246 -0.0053567230  0.7009599000 -0.2260149000 -0.8687730000  0.0000000000  0.0000000000
  0.0002435774  0.0008812836  0.4515562000 -0.3073539000  0.0211459700  0.0000000000  0.0000000000
 -8.7966170e-5 -0.0007605536  0.0301191000  0.2544054000  2.2754980000  0.0000000000  0.0000000000
  7.8782460e-5  0.0006340116 -0.0132948000  0.5981590000 -1.1907700000  0.0000000000  0.0000000000
 -1.6371550e-5 -0.0001556163  0.0046336790  0.3115202000 -0.7674257000  1.0000000000  0.0000000000
  0.0000000000  0.0000000000  0.0000000000  0.0000000000  0.0000000000  0.0000000000  1.0000000000
* p-type functions
   17    6
      10592.19000000
       2507.53300000
        814.45710000
        311.51950000
        131.96170000
         59.98718000
         28.66250000
         14.10851000
          7.10370600
          3.60920000
          1.77607000
          0.85476000
          0.40223900
          0.15466500
          0.06494500
          0.02635900
          0.01066000
  0.0000450000 -0.0000150000 -0.0000040000  0.0000040000  0.0000000000  0.0000000000
  0.0004010000 -0.0001310000 -0.0000320000  0.0000390000  0.0000000000  0.0000000000
  0.0023020000 -0.0007570000 -0.0001850000  0.0002210000  0.0000000000  0.0000000000
  0.0100370000 -0.0033180000 -0.0008080000  0.0009840000  0.0000000000  0.0000000000
  0.0349540000 -0.0117060000 -0.0028700000  0.0034230000  0.0000000000  0.0000000000
  0.0979090000 -0.0336040000 -0.0082070000  0.0099930000  0.0000000000  0.0000000000
  0.2106800000 -0.0748790000 -0.0184730000  0.0219160000  0.0000000000  0.0000000000
  0.3300930000 -0.1225480000 -0.0301010000  0.0370080000  0.0000000000  0.0000000000
  0.3310270000 -0.1302760000 -0.0329430000  0.0377940000  0.0000000000  0.0000000000
  0.1579600000  0.0145960000  0.0079580000 -0.0043790000  0.0000000000  0.0000000000
  0.0220990000  0.3091840000  0.0879930000 -0.1101640000  0.0000000000  0.0000000000
 -0.0016050000  0.4629980000  0.1523770000 -0.1610170000  0.0000000000  0.0000000000
 -0.0013260000  0.3049570000  0.0971700000 -0.1824820000  0.0000000000  0.0000000000
 -0.0002800000  0.0508780000 -0.2569380000  0.3886110000  0.0000000000  0.0000000000
  0.0000340000 -0.0044930000 -0.5878150000  0.6911000000  0.0000000000  0.0000000000
 -0.0000130000  0.0018320000 -0.3054210000  0.0796040000  1.0000000000  0.0000000000
  0.0000000000  0.0000000000  0.0000000000  0.0000000000  0.0000000000  1.0000000000
* d-type functions
    9    4
         50.51380000
         14.74050000
          5.19500000
          2.02846000
          0.80408600
          0.30768900
          0.11139200
          0.03735200
          0.01244000
  0.0042660000 -0.0043890000  0.0000000000  0.0000000000
  0.0277080000 -0.0283630000  0.0000000000  0.0000000000
  0.1000010000 -0.1051370000  0.0000000000  0.0000000000
  0.2315810000 -0.2348540000  0.0000000000  0.0000000000
  0.3460330000 -0.3246090000  0.0000000000  0.0000000000
  0.3733740000 -0.0642890000  0.0000000000  0.0000000000
  0.2642880000  0.6017490000  0.0000000000  0.0000000000
  0.0636670000  0.3903000000  1.0000000000  0.0000000000
  0.0000000000  0.0000000000  0.0000000000  1.0000000000
* f-type functions
    3    2
          0.71260000
          0.16360000
          0.04063000
  0.3617450000  0.0000000000
  0.8218680000  0.0000000000
  0.0000000000  1.0000000000

/Ti.aug-cc-pVDZ.Balabanov.21s17p9d3f.7s6p4d2f.
N.B. Balabanov, K.A. Peterson. J. Chem. Phys. 123 (2005) 064107. doi:10.1063/1.1998907
TITANIUM (21s,17p,9d,3f) -> [7s,6p,4d,2f]
    22.0   3
* s-type functions
   21    7
    3014643.00000000
     451432.90000000
     102733.80000000
      29098.17000000
       9492.33000000
       3426.34600000
       1335.89600000
        553.50260000
        240.69250000
        108.72930000
         50.26457000
         22.58004000
         10.71432000
          5.09354600
          2.24418300
          1.05957000
          0.46884900
          0.10614300
          0.05526200
          0.02546500
          0.01173000
  8.0607820e-6 -4.6304860e-6  9.2305590e-7 -2.1803230e-7 -3.9751260e-7  0.0000000000  0.0000000000
  6.2675180e-5 -3.6004510e-5  7.1789740e-6 -1.6948600e-6 -3.1610800e-6  0.0000000000  0.0000000000
  0.0003295006 -0.0001893420  3.7751340e-5 -8.9192080e-6 -1.6093750e-5  0.0000000000  0.0000000000
  0.0013892030 -0.0007988781  0.0001594532 -3.7636330e-5 -7.0929470e-5  0.0000000000  0.0000000000
  0.0050284690 -0.0028986980  0.0005795150 -0.0001369575 -0.0002442710  0.0000000000  0.0000000000
  0.0161041900 -0.0093397010  0.0018784140 -0.0004432894 -0.0008457892  0.0000000000  0.0000000000
  0.0458123200 -0.0269746400  0.0054927470 -0.0012988680 -0.0022822080  0.0000000000  0.0000000000
  0.1128613000 -0.0687891300  0.0144329700 -0.0034067520 -0.0066198730  0.0000000000  0.0000000000
  0.2248193000 -0.1481037000  0.0329640800 -0.0078108290 -0.0133502400  0.0000000000  0.0000000000
  0.3114571000 -0.2445253000  0.0612549300 -0.0144924500 -0.0295583000  0.0000000000  0.0000000000
  0.2224995000 -0.2419916000  0.0713411300 -0.0170813600 -0.0247703900  0.0000000000  0.0000000000
  0.0729312800  0.0318379000 -0.0197315000  0.0048976660 -0.0084146240  0.0000000000  0.0000000000
  0.1160683000  0.4932686000 -0.2741869000  0.0675310800  0.1693855000  0.0000000000  0.0000000000
  0.1194774000  0.4939655000 -0.4440977000  0.1173318000  0.1500787000  0.0000000000  0.0000000000
  0.0209786800  0.0919631300  0.0777608400 -0.0298502500  0.0978777700  0.0000000000  0.0000000000
 -0.0005091715 -0.0053169920  0.7068444000 -0.2277634000 -0.9653608000  0.0000000000  0.0000000000
  0.0002217859  0.0008085624  0.4413892000 -0.2928115000  0.1489721000  0.0000000000  0.0000000000
 -7.6368960e-5 -0.0006918459  0.0279976900  0.2665300000  2.1911790000  0.0000000000  0.0000000000
  7.7195390e-5  0.0006086512 -0.0121079000  0.5912406000 -1.2433250000  0.0000000000  0.0000000000
 -1.1490560e-5 -0.0001313842  0.0043247620  0.3037229000 -0.6711916000  1.0000000000  0.0000000000
  0.0000000000  0.0000000000  0.0000000000  0.0000000000  0.0000000000  0.0000000000  1.0000000000
* p-type functions
   17    6
      11912.03000000
       2819.94700000
        915.94790000
        350.38420000
        148.48250000
         67.53944000
         32.30332000
         15.92786000
          8.03803500
          4.09391600
          2.02239000
          0.97610200
          0.45959500
          0.17715200
          0.07351700
          0.02940100
          0.01176000
  0.0000440000 -0.0000150000  0.0000040000  0.0000040000  0.0000000000  0.0000000000
  0.0003910000 -0.0001310000  0.0000310000  0.0000390000  0.0000000000  0.0000000000
  0.0022480000 -0.0007550000  0.0001820000  0.0002230000  0.0000000000  0.0000000000
  0.0098230000 -0.0033190000  0.0007950000  0.0009920000  0.0000000000  0.0000000000
  0.0343380000 -0.0117500000  0.0028330000  0.0034760000  0.0000000000  0.0000000000
  0.0966660000 -0.0339220000  0.0081540000  0.0101720000  0.0000000000  0.0000000000
  0.2094170000 -0.0761640000  0.0184720000  0.0225760000  0.0000000000  0.0000000000
  0.3301890000 -0.1257020000  0.0304000000  0.0382380000  0.0000000000  0.0000000000
  0.3319360000 -0.1330980000  0.0330470000  0.0393370000  0.0000000000  0.0000000000
  0.1584880000  0.0174060000 -0.0082510000 -0.0061060000  0.0000000000  0.0000000000
  0.0223100000  0.3151650000 -0.0885540000 -0.1129620000  0.0000000000  0.0000000000
 -0.0015660000  0.4618140000 -0.1496120000 -0.1681140000  0.0000000000  0.0000000000
 -0.0013240000  0.2998560000 -0.0942270000 -0.1659320000  0.0000000000  0.0000000000
 -0.0002710000  0.0500000000  0.2508460000  0.3914030000  0.0000000000  0.0000000000
  0.0000320000 -0.0042300000  0.5866430000  0.6818400000  0.0000000000  0.0000000000
 -0.0000120000  0.0017250000  0.3135350000  0.0840310000  1.0000000000  0.0000000000
  0.0000000000  0.0000000000  0.0000000000  0.0000000000  0.0000000000  1.0000000000
* d-type functions
    9    4
         64.01300000
         18.81790000
          6.72870000
          2.66413000
          1.07868000
          0.42320900
          0.15599900
          0.05188400
          0.01726000
  0.0038870000 -0.0039700000  0.0000000000  0.0000000000
  0.0263990000 -0.0268730000  0.0000000000  0.0000000000
  0.0975110000 -0.1022750000  0.0000000000  0.0000000000
  0.2328480000 -0.2377280000  0.0000000000  0.0000000000
  0.3531520000 -0.3121140000  0.0000000000  0.0000000000
  0.3721860000 -0.0423780000  0.0000000000  0.0000000000
  0.2476720000  0.5886580000  0.0000000000  0.0000000000
  0.0582360000  0.4103020000  1.0000000000  0.0000000000
  0.0000000000  0.0000000000  0.0000000000  1.0000000000
* f-type functions
    3    2
          1.22740000
          0.27880000
          0.08266000
  0.3581580000  0.0000000000
  0.8257940000  0.0000000000
  0.0000000000  1.0000000000

/V.aug-cc-pVDZ.Balabanov.21s17p9d3f.7s6p4d2f.
N.B. Balabanov, K.A. Peterson. J. Chem. Phys. 123 (2005) 064107. doi:10.1063/1.1998907
VANADIUM (21s,17p,9d,3f) -> [7s,6p,4d,2f]
    23.0   3
* s-type functions
   21    7
    3321857.00000000
     497435.60000000
     113202.70000000
      32063.33000000
      10459.62000000
       3775.50600000
       1472.04000000
        609.93310000
        265.26340000
        119.86070000
         55.44891000
         24.98372000
         11.88056000
          5.66031100
          2.49570300
          1.17786600
          0.52004400
          0.11596500
          0.05893800
          0.02694600
          0.01232000
  8.0399990e-6 -4.5030030e-6  9.3206480e-7 -2.1589440e-7 -4.0934160e-7  0.0000000000  0.0000000000
  6.2514020e-5 -3.5012950e-5  7.2493060e-6 -1.6785190e-6 -3.2589560e-6  0.0000000000  0.0000000000
  0.0003286553 -0.0001841339  3.8119670e-5 -8.8312130e-6 -0.0000165639  0.0000000000  0.0000000000
  0.0013856970 -0.0007769216  0.0001610238 -3.7277690e-5 -7.3166890e-5  0.0000000000  0.0000000000
  0.0050162170 -0.0028195050  0.0005852210 -0.0001356099 -0.0002512784  0.0000000000  0.0000000000
  0.0160693100 -0.0090874860  0.0018975020 -0.0004392351 -0.0008732657  0.0000000000  0.0000000000
  0.0457424200 -0.0262713400  0.0055509090 -0.0012869480 -0.0023476540  0.0000000000  0.0000000000
  0.1128544000 -0.0671272600  0.0146058400 -0.0033821490 -0.0068531500  0.0000000000  0.0000000000
  0.2254344000 -0.1451130000  0.0334297400 -0.0077656460 -0.0137642000  0.0000000000  0.0000000000
  0.3140461000 -0.2412483000  0.0623572200 -0.0144798500 -0.0308467900  0.0000000000  0.0000000000
  0.2267819000 -0.2416314000  0.0731243500 -0.0171550200 -0.0256220800  0.0000000000  0.0000000000
  0.0733406900  0.0306736200 -0.0191147200  0.0046101010 -0.0100512300  0.0000000000  0.0000000000
  0.1102474000  0.4970415000 -0.2817249000  0.0682783100  0.1795330000  0.0000000000  0.0000000000
  0.1131358000  0.4958875000 -0.4488151000  0.1161368000  0.1522400000  0.0000000000  0.0000000000
  0.0197129500  0.0918186800  0.0920269600 -0.0327704900  0.0948388700  0.0000000000  0.0000000000
 -0.0004719088 -0.0053925140  0.7110117000 -0.2280000000 -1.0148760000  0.0000000000  0.0000000000
  0.0001861606  0.0007102380  0.4309274000 -0.2793991000  0.2308810000  0.0000000000  0.0000000000
 -6.2085980e-5 -0.0006363128  0.0260458900  0.2771165000  2.1133210000  0.0000000000  0.0000000000
  7.2953140e-5  0.0005979932 -0.0110104900  0.5852999000 -1.2530480000  0.0000000000  0.0000000000
 -6.3620620e-6 -0.0001100879  0.0041063000  0.2963946000 -0.6139502000  1.0000000000  0.0000000000
  0.0000000000  0.0000000000  0.0000000000  0.0000000000  0.0000000000  0.0000000000  1.0000000000
* p-type functions
   17    6
      13273.20000000
       3142.12600000
       1020.58800000
        390.44070000
        165.50430000
         75.32006000
         36.05503000
         17.80436000
          9.00292900
          4.59454400
          2.27676000
          1.10117800
          0.51863800
          0.20056500
          0.08129100
          0.03179500
          0.01244000
  0.0000430000 -0.0000150000  0.0000040000  0.0000040000  0.0000000000  0.0000000000
  0.0003840000 -0.0001310000  0.0000320000  0.0000390000  0.0000000000  0.0000000000
  0.0022100000 -0.0007550000  0.0001830000  0.0002230000  0.0000000000  0.0000000000
  0.0096780000 -0.0033250000  0.0008020000  0.0009960000  0.0000000000  0.0000000000
  0.0339360000 -0.0118110000  0.0028620000  0.0034980000  0.0000000000  0.0000000000
  0.0959170000 -0.0342560000  0.0082870000  0.0102960000  0.0000000000  0.0000000000
  0.2088530000 -0.0773630000  0.0188700000  0.0229620000  0.0000000000  0.0000000000
  0.3306600000 -0.1284560000  0.0313070000  0.0392080000  0.0000000000  0.0000000000
  0.3323120000 -0.1350780000  0.0336600000  0.0399430000  0.0000000000  0.0000000000
  0.1581880000  0.0208380000 -0.0094790000 -0.0071210000  0.0000000000  0.0000000000
  0.0222520000  0.3204990000 -0.0923130000 -0.1162250000  0.0000000000  0.0000000000
 -0.0015650000  0.4602600000 -0.1489890000 -0.1694960000  0.0000000000  0.0000000000
 -0.0013530000  0.2953460000 -0.0836440000 -0.1553740000  0.0000000000  0.0000000000
 -0.0002650000  0.0490460000  0.2493390000  0.3950220000  0.0000000000  0.0000000000
  0.0000290000 -0.0038240000  0.5805150000  0.6789080000  0.0000000000  0.0000000000
 -0.0000110000  0.0015850000  0.3223800000  0.0831220000  1.0000000000  0.0000000000
  0.0000000000  0.0000000000  0.0000000000  0.0000000000  0.0000000000  1.0000000000
* d-type functions
    9    4
         77.61150000
         22.91590000
          8.27954000
          3.30993000
          1.35863000
          0.54135000
          0.20235600
          0.06756800
          0.02256000
  0.0035950000 -0.0038180000  0.0000000000  0.0000000000
  0.0252100000 -0.0267170000  0.0000000000  0.0000000000
  0.0947860000 -0.1036900000  0.0000000000  0.0000000000
  0.2303630000 -0.2476890000  0.0000000000  0.0000000000
  0.3528940000 -0.3115230000  0.0000000000  0.0000000000
  0.3704140000 -0.0228270000  0.0000000000  0.0000000000
  0.2457180000  0.5697260000  0.0000000000  0.0000000000
  0.0609930000  0.4194930000  1.0000000000  0.0000000000
  0.0000000000  0.0000000000  0.0000000000  1.0000000000
* f-type functions
    3    2
          1.74880000
          0.40570000
          0.13112000
  0.3900680000  0.0000000000
  0.8008410000  0.0000000000
  0.0000000000  1.0000000000

/Cr.aug-cc-pVDZ.Balabanov.21s17p9d3f.7s6p4d2f.
N.B. Balabanov, K.A. Peterson. J. Chem. Phys. 123 (2005) 064107. doi:10.1063/1.1998907
CHROMIUM (21s,17p,9d,3f) -> [7s,6p,4d,2f]
    24.0   3
* s-type functions
   21    7
    6177194.00000000
     924929.50000000
     210486.50000000
      59620.05000000
      19450.76000000
       7022.05600000
       2738.76300000
       1135.81400000
        495.09230000
        224.74870000
        105.38360000
         50.19359000
         22.24957000
         10.98265000
          5.38366500
          2.34368500
          1.10520200
          0.48784800
          0.08959900
          0.03342300
          0.01247000
  4.1286670e-6 -2.3017720e-6  4.8629570e-7 -1.1024510e-7  2.1798930e-7  0.0000000000  0.0000000000
  3.2107670e-5 -1.7895360e-5  3.7766450e-6 -8.5302330e-7  1.6129400e-6  0.0000000000  0.0000000000
  0.0001688416 -9.4161740e-5  1.9906640e-5 -4.5203580e-6  9.1118420e-6  0.0000000000  0.0000000000
  0.0007128520 -0.0003975074  8.3891640e-5 -1.8916120e-5  3.5006450e-5  0.0000000000  0.0000000000
  0.0025893250 -0.0014470250  0.0003065706 -6.9743440e-5  0.0001435315  0.0000000000  0.0000000000
  0.0083773500 -0.0046946220  0.0009944107 -0.0002237867  0.0004035896  0.0000000000  0.0000000000
  0.0244172500 -0.0138238700  0.0029619590 -0.0006754503  0.0014251770  0.0000000000  0.0000000000
  0.0636513500 -0.0367464300  0.0079694730 -0.0017893460  0.0031140090  0.0000000000  0.0000000000
  0.1427618000 -0.0864718500  0.0195501700 -0.0044778580  0.0098144490  0.0000000000  0.0000000000
  0.2541275000 -0.1696735000  0.0408503500 -0.0091401440  0.0147469800  0.0000000000  0.0000000000
  0.3009512000 -0.2507089000  0.0692900300 -0.0161056200  0.0391151200  0.0000000000  0.0000000000
  0.1766513000 -0.1961156000  0.0614698400 -0.0133487000  0.0091708880  0.0000000000  0.0000000000
  0.0693670900  0.1457244000 -0.0698130200  0.0142602700  0.0155987800  0.0000000000  0.0000000000
  0.1179579000  0.5466706000 -0.3517597000  0.0893169000 -0.2816844000  0.0000000000  0.0000000000
  0.0891618700  0.3979434000 -0.3828629000  0.0888527900 -0.0068952610  0.0000000000  0.0000000000
  0.0110363000  0.0527700700  0.2676401000 -0.0636877600 -0.1769781000  0.0000000000  0.0000000000
 -0.0003546048 -0.0043745370  0.7175950000 -0.2783262000  1.4430610000  0.0000000000  0.0000000000
  0.0001057311  0.0003204035  0.3020814000 -0.1830071000 -1.0293180000  0.0000000000  0.0000000000
  0.0000111464 -5.1420770e-5  0.0077495140  0.6790937000 -1.3076670000  0.0000000000  0.0000000000
  2.6613870e-5  0.0001584134  0.0002696096  0.4672953000  1.5038420000  1.0000000000  0.0000000000
  0.0000000000  0.0000000000  0.0000000000  0.0000000000  0.0000000000  0.0000000000  1.0000000000
* p-type functions
   17    6
      14454.20000000
       3421.67600000
       1111.38700000
        425.19180000
        180.26230000
         82.06117000
         39.29726000
         19.41959000
          9.82889900
          5.01681000
          2.48709100
          1.19878000
          0.55869500
          0.20892400
          0.08460800
          0.03325800
          0.01307000
  0.0000440000 -0.0000150000  0.0000040000  0.0000040000  0.0000000000  0.0000000000
  0.0003890000 -0.0001350000  0.0000320000  0.0000400000  0.0000000000  0.0000000000
  0.0022410000 -0.0007770000  0.0001850000  0.0002290000  0.0000000000  0.0000000000
  0.0098210000 -0.0034270000  0.0008100000  0.0010190000  0.0000000000  0.0000000000
  0.0344710000 -0.0121890000  0.0029060000  0.0036020000  0.0000000000  0.0000000000
  0.0974600000 -0.0353880000  0.0083910000  0.0105500000  0.0000000000  0.0000000000
  0.2119850000 -0.0799150000  0.0191930000  0.0237020000  0.0000000000  0.0000000000
  0.3339900000 -0.1323350000  0.0315640000  0.0399880000  0.0000000000  0.0000000000
  0.3301370000 -0.1354010000  0.0334170000  0.0404370000  0.0000000000  0.0000000000
  0.1522270000  0.0320080000 -0.0129070000 -0.0120740000  0.0000000000  0.0000000000
  0.0204250000  0.3338490000 -0.0936590000 -0.1189390000  0.0000000000  0.0000000000
 -0.0013600000  0.4617730000 -0.1499770000 -0.1781000000  0.0000000000  0.0000000000
 -0.0011950000  0.2812900000 -0.0672340000 -0.1238650000  0.0000000000  0.0000000000
 -0.0001970000  0.0418430000  0.2707590000  0.4297220000  0.0000000000  0.0000000000
  0.0000230000 -0.0040020000  0.5758070000  0.6507860000  0.0000000000  0.0000000000
 -0.0000090000  0.0015210000  0.3011210000  0.0641710000  1.0000000000  0.0000000000
  0.0000000000  0.0000000000  0.0000000000  0.0000000000  0.0000000000  1.0000000000
* d-type functions
    9    4
         88.57680000
         26.20450000
          9.51747000
          3.82248000
          1.57512000
          0.62892800
          0.23442400
          0.07681500
          0.02517000
  0.0036210000 -0.0041220000  0.0000000000  0.0000000000
  0.0257660000 -0.0293070000  0.0000000000  0.0000000000
  0.0975560000 -0.1150620000  0.0000000000  0.0000000000
  0.2363120000 -0.2730680000  0.0000000000  0.0000000000
  0.3582860000 -0.3144230000  0.0000000000  0.0000000000
  0.3685430000  0.0420970000  0.0000000000  0.0000000000
  0.2354940000  0.5914030000  0.0000000000  0.0000000000
  0.0531560000  0.3582150000  1.0000000000  0.0000000000
  0.0000000000  0.0000000000  0.0000000000  1.0000000000
* f-type functions
    3    2
          2.22110000
          0.52310000
          0.17636000
  0.4235450000  0.0000000000
  0.7741140000  0.0000000000
  0.0000000000  1.0000000000

/Mn.aug-cc-pVDZ.Balabanov.21s17p9d3f.7s6p4d2f.
N.B. Balabanov, K.A. Peterson. J. Chem. Phys. 123 (2005) 064107. doi:10.1063/1.1998907
MANGANESE (21s,17p,9d,3f) -> [7s,6p,4d,2f]
    25.0   3
* s-type functions
   21    7
    3960805.00000000
     593115.50000000
     134976.80000000
      38230.67000000
      12471.54000000
       4501.74300000
       1755.21200000
        727.30390000
        316.36780000
        143.00980000
         66.21805000
         29.91896000
         14.30318000
          6.83945100
          3.01237400
          1.41880800
          0.62362400
          0.13409800
          0.06554800
          0.02958400
          0.01335000
  8.2421270e-6 -3.9360950e-6  9.4627090e-7 -2.0953910e-7 -4.1212310e-7  0.0000000000  0.0000000000
  6.4085870e-5 -3.0604810e-5  7.3605840e-6 -1.6294390e-6 -3.2820990e-6  0.0000000000  0.0000000000
  0.0003369253 -0.0001609626  3.8699350e-5 -8.5705920e-6 -1.6674330e-5  0.0000000000  0.0000000000
  0.0014206480 -0.0006792348  0.0001635110 -3.6192720e-5 -7.3699990e-5  0.0000000000  0.0000000000
  0.0051436830 -0.0024661820  0.0005941775 -0.0001316146 -0.0002529495  0.0000000000  0.0000000000
  0.0164856900 -0.0079576290  0.0019277370 -0.0004266810 -0.0008801425  0.0000000000  0.0000000000
  0.0469856000 -0.0230724800  0.0056417310 -0.0012502700 -0.0023654820  0.0000000000  0.0000000000
  0.1162437000 -0.0593295600  0.0148784800 -0.0032946650 -0.0069263540  0.0000000000  0.0000000000
  0.2335277000 -0.1299451000  0.0341478300 -0.0075818600 -0.0139385100  0.0000000000  0.0000000000
  0.3292837000 -0.2212352000  0.0640579400 -0.0142286400 -0.0314384000  0.0000000000  0.0000000000
  0.2440304000 -0.2292550000  0.0755765900 -0.0169379600 -0.0262574900  0.0000000000  0.0000000000
  0.0721980600  0.0358073300 -0.0194607000  0.0044542980 -0.0104831300  0.0000000000  0.0000000000
  0.0768780600  0.5107602000 -0.2957874000  0.0686704200  0.1856472000  0.0000000000  0.0000000000
  0.0785223500  0.5008307000 -0.4521170000  0.1113335000  0.1524839000  0.0000000000  0.0000000000
  0.0129410900  0.0901183000  0.1224531000 -0.0390082000  0.0741136800  0.0000000000  0.0000000000
 -0.0003784873 -0.0069099090  0.7169756000 -0.2215755000 -1.0180970000  0.0000000000  0.0000000000
 -2.5032030e-5 -0.0001912925  0.4092712000 -0.2544359000  0.2980372000  0.0000000000  0.0000000000
 -2.4215170e-5 -0.0006032312  0.0222196900  0.2865866000  1.9719890000  0.0000000000  0.0000000000
  3.4620710e-5  0.0005621608 -0.0090112020  0.5755741000 -1.1792530000  0.0000000000  0.0000000000
  4.2614820e-7 -0.0001021109  0.0036917270  0.2898778000 -0.5837703000  1.0000000000  0.0000000000
  0.0000000000  0.0000000000  0.0000000000  0.0000000000  0.0000000000  0.0000000000  1.0000000000
* p-type functions
   17    6
      16205.86000000
       3836.27400000
       1246.04800000
        476.75350000
        202.18950000
         92.09487000
         44.14720000
         21.85468000
         11.08596000
          5.67410800
          2.82317000
          1.36862100
          0.64443100
          0.24838200
          0.09725500
          0.03663300
          0.01380000
  0.0000420000 -0.0000150000  0.0000030000  0.0000040000  0.0000000000  0.0000000000
  0.0003730000 -0.0001290000  0.0000300000  0.0000400000  0.0000000000  0.0000000000
  0.0021490000 -0.0007480000  0.0001720000  0.0002260000  0.0000000000  0.0000000000
  0.0094450000 -0.0033080000  0.0007620000  0.0010130000  0.0000000000  0.0000000000
  0.0332970000 -0.0118110000  0.0027260000  0.0035750000  0.0000000000  0.0000000000
  0.0947590000 -0.0345330000  0.0079760000  0.0106120000  0.0000000000  0.0000000000
  0.2081440000 -0.0787850000  0.0182870000  0.0239020000  0.0000000000  0.0000000000
  0.3318050000 -0.1321830000  0.0307760000  0.0412790000  0.0000000000  0.0000000000
  0.3331750000 -0.1371950000  0.0323730000  0.0414750000  0.0000000000  0.0000000000
  0.1576010000  0.0270750000 -0.0099780000 -0.0094580000  0.0000000000  0.0000000000
  0.0214450000  0.3288910000 -0.0905290000 -0.1236950000  0.0000000000  0.0000000000
 -0.0025580000  0.4572800000 -0.1380040000 -0.1743920000  0.0000000000  0.0000000000
 -0.0020270000  0.2889080000 -0.0779650000 -0.1291700000  0.0000000000  0.0000000000
 -0.0003600000  0.0474330000  0.2295600000  0.4003480000  0.0000000000  0.0000000000
  0.0000340000 -0.0035220000  0.5761220000  0.6696460000  0.0000000000  0.0000000000
 -0.0000130000  0.0014560000  0.3485380000  0.0827320000  1.0000000000  0.0000000000
  0.0000000000  0.0000000000  0.0000000000  0.0000000000  0.0000000000  1.0000000000
* d-type functions
    9    4
        100.66300000
         29.83360000
         10.88940000
          4.39358000
          1.81782000
          0.72782700
          0.27129500
          0.08830900
          0.02875000
  0.0035790000 -0.0034540000  0.0000000000  0.0000000000
  0.0258270000 -0.0249250000  0.0000000000  0.0000000000
  0.0985590000 -0.0976350000  0.0000000000  0.0000000000
  0.2383270000 -0.2366920000  0.0000000000  0.0000000000
  0.3587070000 -0.2923500000  0.0000000000  0.0000000000
  0.3650920000 -0.0049730000  0.0000000000  0.0000000000
  0.2337380000  0.5065880000  0.0000000000  0.0000000000
  0.0566180000  0.4979510000  1.0000000000  0.0000000000
  0.0000000000  0.0000000000  0.0000000000  1.0000000000
* f-type functions
    3    2
          2.70320000
          0.64380000
          0.22260000
  0.4267760000  0.0000000000
  0.7697990000  0.0000000000
  0.0000000000  1.0000000000

/Fe.aug-cc-pVDZ.Balabanov.21s17p9d3f.7s6p4d2f.
N.B. Balabanov, K.A. Peterson. J. Chem. Phys. 123 (2005) 064107. doi:10.1063/1.1998907
IRON (21s,17p,9d,3f) -> [7s,6p,4d,2f]
    26.0   3
* s-type functions
   21    7
    4316265.00000000
     646342.40000000
     147089.70000000
      41661.52000000
      13590.77000000
       4905.75000000
       1912.74600000
        792.60430000
        344.80650000
        155.89990000
         72.23091000
         32.72506000
         15.66762000
          7.50348300
          3.31222300
          1.55847100
          0.68391400
          0.14675700
          0.07058300
          0.03144900
          0.01401000
  8.0488030e-6 -4.1559540e-6  9.5321780e-7 -2.0630080e-7 -4.0093670e-7  0.0000000000  0.0000000000
  6.2583060e-5 -3.2314010e-5  7.4146050e-6 -1.6041690e-6 -3.1892550e-6  0.0000000000  0.0000000000
  0.0003290239 -0.0001699525  3.8983930e-5 -8.4384370e-6 -1.6230790e-5  0.0000000000  0.0000000000
  0.0013873550 -0.0007171369  0.0001647152 -3.5631510e-5 -0.0000715792  0.0000000000  0.0000000000
  0.0050232560 -0.0026036250  0.0005985980 -0.0001295998 -0.0002463958  0.0000000000  0.0000000000
  0.0161014000 -0.0083991090  0.0019423900 -0.0004201534 -0.0008544907  0.0000000000  0.0000000000
  0.0459003400 -0.0243410900  0.0056872370 -0.0012319540 -0.0023075930  0.0000000000  0.0000000000
  0.1136154000 -0.0625194800  0.0150132900 -0.0032489220 -0.0067282920  0.0000000000  0.0000000000
  0.2283869000 -0.1365929000  0.0345245500 -0.0074937170 -0.0136616500  0.0000000000  0.0000000000
  0.3221159000 -0.2312707000  0.0649582000 -0.0141010200 -0.0306224000  0.0000000000  0.0000000000
  0.2383661000 -0.2383734000  0.0771619400 -0.0169160000 -0.0263113700  0.0000000000  0.0000000000
  0.0740466700  0.0312383700 -0.0187341100  0.0042189960 -0.0097601830  0.0000000000  0.0000000000
  0.0921419700  0.5086818000 -0.3009185000  0.0683381000  0.1801906000  0.0000000000  0.0000000000
  0.0933979000  0.4987695000 -0.4554661000  0.1098201000  0.1529634000  0.0000000000  0.0000000000
  0.0157396500  0.0903355200  0.1286463000 -0.0400900500  0.0550541300  0.0000000000  0.0000000000
 -0.0004186682 -0.0060053370  0.7183316000 -0.2174739000 -0.9551364000  0.0000000000  0.0000000000
  5.3763180e-5  0.0002312454  0.4051743000 -0.2465135000  0.2586813000  0.0000000000  0.0000000000
 -3.8166540e-5 -0.0005643680  0.0216822700  0.2731435000  1.8340490000  0.0000000000  0.0000000000
  4.3196030e-5  0.0004992260 -0.0083435660  0.5748321000 -0.9333240000  0.0000000000  0.0000000000
 -3.4010190e-6 -0.0001015293  0.0036589790  0.3012713000 -0.6981605000  1.0000000000  0.0000000000
  0.0000000000  0.0000000000  0.0000000000  0.0000000000  0.0000000000  0.0000000000  1.0000000000
* p-type functions
   17    6
      17745.69000000
       4200.72100000
       1364.42900000
        522.08060000
        221.45950000
        100.90960000
         48.40115000
         23.98536000
         12.18250000
          6.24229800
          3.11094400
          1.50995800
          0.71084500
          0.27319000
          0.10423300
          0.03829100
          0.01407000
  0.0000410000 -0.0000150000  0.0000030000  0.0000050000  0.0000000000  0.0000000000
  0.0003690000 -0.0001300000  0.0000290000  0.0000420000  0.0000000000  0.0000000000
  0.0021290000 -0.0007510000  0.0001650000  0.0002410000  0.0000000000  0.0000000000
  0.0093690000 -0.0033290000  0.0007340000  0.0010850000  0.0000000000  0.0000000000
  0.0330970000 -0.0119120000  0.0026260000  0.0038310000  0.0000000000  0.0000000000
  0.0944310000 -0.0349330000  0.0077250000  0.0114230000  0.0000000000  0.0000000000
  0.2080770000 -0.0799890000  0.0177330000  0.0257920000  0.0000000000  0.0000000000
  0.3323330000 -0.1346360000  0.0300550000  0.0448180000  0.0000000000  0.0000000000
  0.3329870000 -0.1385980000  0.0310940000  0.0445980000  0.0000000000  0.0000000000
  0.1568430000  0.0302780000 -0.0100480000 -0.0111770000  0.0000000000  0.0000000000
  0.0215490000  0.3332160000 -0.0883060000 -0.1381340000  0.0000000000  0.0000000000
 -0.0020950000  0.4561530000 -0.1298240000 -0.1882850000  0.0000000000  0.0000000000
 -0.0017390000  0.2850510000 -0.0769370000 -0.1073990000  0.0000000000  0.0000000000
 -0.0003000000  0.0461440000  0.2126610000  0.4448630000  0.0000000000  0.0000000000
  0.0000290000 -0.0032490000  0.5730610000  0.6402390000  0.0000000000  0.0000000000
 -0.0000110000  0.0013570000  0.3696510000  0.0644570000  1.0000000000  0.0000000000
  0.0000000000  0.0000000000  0.0000000000  0.0000000000  0.0000000000  1.0000000000
* d-type functions
    9    4
        113.34400000
         33.64140000
         12.33100000
          4.99478000
          2.07280000
          0.83075300
          0.30917800
          0.10013000
          0.03243000
  0.0035300000 -0.0038900000  0.0000000000  0.0000000000
  0.0257840000 -0.0284420000  0.0000000000  0.0000000000
  0.0991190000 -0.1124290000  0.0000000000  0.0000000000
  0.2390730000 -0.2742570000  0.0000000000  0.0000000000
  0.3571990000 -0.3155460000  0.0000000000  0.0000000000
  0.3621880000  0.0571090000  0.0000000000  0.0000000000
  0.2364610000  0.5636040000  0.0000000000  0.0000000000
  0.0601180000  0.3846370000  1.0000000000  0.0000000000
  0.0000000000  0.0000000000  0.0000000000  1.0000000000
* f-type functions
    3    2
          3.22430000
          0.77580000
          0.27490000
  0.4222490000  0.0000000000
  0.7714680000  0.0000000000
  0.0000000000  1.0000000000

/Co.aug-cc-pVDZ.Balabanov.21s17p9d3f.7s6p4d2f.
N.B. Balabanov, K.A. Peterson. J. Chem. Phys. 123 (2005) 064107. doi:10.1063/1.1998907
COBALT (21s,17p,9d,3f) -> [7s,6p,4d,2f]
    27.0   3
* s-type functions
   21    7
    4675675.00000000
     700161.50000000
     159337.30000000
      45130.46000000
      14722.38000000
       5314.22200000
       2072.01800000
        858.61880000
        373.54970000
        168.92290000
         78.29639000
         35.52123000
         17.04144000
          8.17300000
          3.61031800
          1.69704700
          0.74353200
          0.15834400
          0.07503600
          0.03309100
          0.01459000
  7.9790260e-6 -4.2002400e-6  9.5926920e-7 -2.0288400e-7 -3.8630530e-7  0.0000000000  0.0000000000
  6.2040710e-5 -3.2658310e-5  7.4618510e-6 -1.5775800e-6 -3.0687880e-6  0.0000000000  0.0000000000
  0.0003261735 -0.0001717644  3.9231370e-5 -8.2988130e-6 -1.5648260e-5  0.0000000000  0.0000000000
  0.0013753600 -0.0007247853  0.0001657706 -3.5041540e-5 -6.8835880e-5  0.0000000000  0.0000000000
  0.0049799970 -0.0026314620  0.0006024335 -0.0001274655 -0.0002377367  0.0000000000  0.0000000000
  0.0159643400 -0.0084892720  0.0019552170 -0.0004132695 -0.0008213173  0.0000000000  0.0000000000
  0.0455208600 -0.0246061900  0.0057263260 -0.0012122610 -0.0022296300  0.0000000000  0.0000000000
  0.1127385000 -0.0632205900  0.0151298400 -0.0031993180 -0.0064678410  0.0000000000  0.0000000000
  0.2268262000 -0.1381957000  0.0348397300 -0.0073909720 -0.0132546300  0.0000000000  0.0000000000
  0.3203074000 -0.2340680000  0.0657035100 -0.0139364900 -0.0294668600  0.0000000000  0.0000000000
  0.2374021000 -0.2415002000  0.0783150300 -0.0167857500 -0.0259906600  0.0000000000  0.0000000000
  0.0747768600  0.0303531200 -0.0187703700  0.0041498560 -0.0084998070  0.0000000000  0.0000000000
  0.0958187200  0.5101341000 -0.3062663000  0.0679764600  0.1727316000  0.0000000000  0.0000000000
  0.0964991100  0.4974939000 -0.4566429000  0.1075807000  0.1512189000  0.0000000000  0.0000000000
  0.0162336200  0.0897074600  0.1378169000 -0.0416602200  0.0355450900  0.0000000000  0.0000000000
 -0.0004535497 -0.0059410340  0.7193676000 -0.2128044000 -0.8829353000  0.0000000000  0.0000000000
  5.1135190e-5  0.0002175362  0.3992579000 -0.2381360000  0.2143530000  0.0000000000  0.0000000000
 -4.1745080e-5 -0.0005480155  0.0207993300  0.2650788000  1.7118650000  0.0000000000  0.0000000000
  4.0275770e-5  0.0004525804 -0.0078206630  0.5722774000 -0.7140037000  0.0000000000  0.0000000000
 -5.7890670e-6 -0.0001066748  0.0035339110  0.3091556000 -0.8027727000  1.0000000000  0.0000000000
  0.0000000000  0.0000000000  0.0000000000  0.0000000000  0.0000000000  0.0000000000  1.0000000000
* p-type functions
   17    6
      19267.78000000
       4560.98600000
       1481.43600000
        566.86710000
        240.49100000
        109.61050000
         52.59491000
         26.08361000
         13.26143000
          6.79977800
          3.39341400
          1.64876600
          0.77628200
          0.29800300
          0.11361800
          0.04162400
          0.01525000
  0.0000410000 -0.0000150000 -0.0000030000  0.0000050000  0.0000000000  0.0000000000
  0.0003690000 -0.0001310000 -0.0000290000  0.0000450000  0.0000000000  0.0000000000
  0.0021280000 -0.0007580000 -0.0001670000  0.0002550000  0.0000000000  0.0000000000
  0.0093720000 -0.0033630000 -0.0007420000  0.0011440000  0.0000000000  0.0000000000
  0.0331550000 -0.0120540000 -0.0026620000  0.0040610000  0.0000000000  0.0000000000
  0.0947520000 -0.0354240000 -0.0078410000  0.0120950000  0.0000000000  0.0000000000
  0.2090930000 -0.0812870000 -0.0180510000  0.0274760000  0.0000000000  0.0000000000
  0.3337220000 -0.1369080000 -0.0305800000  0.0475570000  0.0000000000  0.0000000000
  0.3322080000 -0.1390190000 -0.0313120000  0.0473020000  0.0000000000  0.0000000000
  0.1546130000  0.0354680000  0.0113110000 -0.0144180000  0.0000000000  0.0000000000
  0.0209020000  0.3384980000  0.0899900000 -0.1500620000  0.0000000000  0.0000000000
 -0.0020240000  0.4544330000  0.1307330000 -0.1990920000  0.0000000000  0.0000000000
 -0.0016970000  0.2797930000  0.0718080000 -0.0797830000  0.0000000000  0.0000000000
 -0.0002800000  0.0447760000 -0.2216580000  0.4590350000  0.0000000000  0.0000000000
  0.0000260000 -0.0031510000 -0.5710250000  0.6174950000  0.0000000000  0.0000000000
 -0.0000100000  0.0013170000 -0.3637890000  0.0646900000  1.0000000000  0.0000000000
  0.0000000000  0.0000000000  0.0000000000  0.0000000000  0.0000000000  1.0000000000
* d-type functions
    9    4
        126.26400000
         37.52260000
         13.80210000
          5.60927000
          2.33369000
          0.93641500
          0.34823700
          0.11235300
          0.03625000
  0.0035100000 -0.0040670000  0.0000000000  0.0000000000
  0.0258840000 -0.0300530000  0.0000000000  0.0000000000
  0.1000580000 -0.1196200000  0.0000000000  0.0000000000
  0.2405470000 -0.2915130000  0.0000000000  0.0000000000
  0.3568430000 -0.3180480000  0.0000000000  0.0000000000
  0.3595790000  0.0916980000  0.0000000000  0.0000000000
  0.2366290000  0.5608230000  0.0000000000  0.0000000000
  0.0621290000  0.3586780000  1.0000000000  0.0000000000
  0.0000000000  0.0000000000  0.0000000000  1.0000000000
* f-type functions
    3    2
          3.77240000
          0.91700000
          0.32715000
  0.4239660000  0.0000000000
  0.7684290000  0.0000000000
  0.0000000000  1.0000000000

/Ni.aug-cc-pVDZ.Balabanov.21s17p9d3f.7s6p4d2f.
N.B. Balabanov, K.A. Peterson. J. Chem. Phys. 123 (2005) 064107. doi:10.1063/1.1998907
NICKEL (21s,17p,9d,3f) -> [7s,6p,4d,2f]
    28.0   3
* s-type functions
   21    7
    5045991.00000000
     755614.20000000
     171956.80000000
      48704.79000000
      15888.41000000
       5735.12300000
       2236.13700000
        926.64680000
        403.17430000
        182.34760000
         84.54885000
         38.39634000
         18.45859000
          8.86354800
          3.91622700
          1.83887000
          0.80436200
          0.16979700
          0.07930600
          0.03467700
          0.01516000
  8.2089960e-6 -3.6578490e-6  9.5941490e-7 -2.0137530e-7 -3.9242450e-7  0.0000000000  0.0000000000
  6.3828840e-5 -2.8440940e-5  7.4626140e-6 -1.5658320e-6 -3.1139090e-6  0.0000000000  0.0000000000
  0.0003355800 -0.0001495928  3.9238430e-5 -8.2371820e-6 -1.5904470e-5  0.0000000000  0.0000000000
  0.0014150750 -0.0006313009  0.0001657868 -3.4781050e-5 -6.9813940e-5  0.0000000000  0.0000000000
  0.0051244440 -0.0022930520  0.0006025905 -0.0001265265 -0.0002417848  0.0000000000  0.0000000000
  0.0164325600 -0.0074051230  0.0019556620 -0.0004102589 -0.0008326195  0.0000000000  0.0000000000
  0.0468939800 -0.0215203200  0.0057303910 -0.0012038340 -0.0022702940  0.0000000000  0.0000000000
  0.1163534000 -0.0556097400  0.0151475600 -0.0031790620 -0.0065574270  0.0000000000  0.0000000000
  0.2350511000 -0.1230176000  0.0349349900 -0.0073538280 -0.0135428800  0.0000000000  0.0000000000
  0.3350184000 -0.2130104000  0.0659807200 -0.0138902200 -0.0298976800  0.0000000000  0.0000000000
  0.2534779000 -0.2265837000  0.0789308300 -0.0167787500 -0.0269310600  0.0000000000  0.0000000000
  0.0730090100  0.0354679600 -0.0190624900  0.0041633780 -0.0078276930  0.0000000000  0.0000000000
  0.0618424400  0.5181697000 -0.3095921000  0.0681470300  0.1741667000  0.0000000000  0.0000000000
  0.0630295600  0.5025630000 -0.4558610000  0.1061029000  0.1595468000  0.0000000000  0.0000000000
  0.0100806300  0.0895567400  0.1482931000 -0.0433998000  0.0199555000  0.0000000000  0.0000000000
 -0.0002244528 -0.0070313110  0.7134039000 -0.2094950000 -0.8897000000  0.0000000000  0.0000000000
 -5.9327670e-5 -0.0004339167  0.3976063000 -0.2310271000  0.2486892000  0.0000000000  0.0000000000
 -1.1585620e-5 -0.0005831711  0.0229552300  0.2590532000  1.6130120000  0.0000000000  0.0000000000
  8.1151090e-6  0.0004228788 -0.0091517580  0.5691426000 -0.5990277000  0.0000000000  0.0000000000
 -1.6816990e-6 -0.0001266714  0.0038754140  0.3158125000 -0.8369078000  1.0000000000  0.0000000000
  0.0000000000  0.0000000000  0.0000000000  0.0000000000  0.0000000000  0.0000000000  1.0000000000
* p-type functions
   17    6
      21027.92000000
       4977.56000000
       1616.74000000
        618.67180000
        262.51830000
        119.69070000
         57.46585000
         28.52829000
         14.52148000
          7.45385000
          3.72355300
          1.80981300
          0.85133600
          0.32481400
          0.11952200
          0.04236600
          0.01502000
  0.0000410000 -0.0000150000  0.0000030000  0.0000060000  0.0000000000  0.0000000000
  0.0003630000 -0.0001290000  0.0000260000  0.0000530000  0.0000000000  0.0000000000
  0.0020970000 -0.0007490000  0.0001520000  0.0003050000  0.0000000000  0.0000000000
  0.0092500000 -0.0033280000  0.0006780000  0.0013640000  0.0000000000  0.0000000000
  0.0327960000 -0.0119470000  0.0024270000  0.0048760000  0.0000000000  0.0000000000
  0.0940040000 -0.0352420000  0.0072010000  0.0145030000  0.0000000000  0.0000000000
  0.2082800000 -0.0812040000  0.0165780000  0.0332960000  0.0000000000  0.0000000000
  0.3336540000 -0.1374930000  0.0283920000  0.0574820000  0.0000000000  0.0000000000
  0.3329040000 -0.1392260000  0.0285990000  0.0587020000  0.0000000000  0.0000000000
  0.1553720000  0.0360160000 -0.0101320000 -0.0199040000  0.0000000000  0.0000000000
  0.0208590000  0.3391280000 -0.0829120000 -0.1946950000  0.0000000000  0.0000000000
 -0.0024400000  0.4504720000 -0.1159980000 -0.2396130000  0.0000000000  0.0000000000
 -0.0019980000  0.2817830000 -0.0727950000 -0.0022320000  0.0000000000  0.0000000000
 -0.0003380000  0.0478980000  0.1956400000  0.5214350000  0.0000000000  0.0000000000
  0.0000350000 -0.0029870000  0.5670990000  0.5455400000  0.0000000000  0.0000000000
 -0.0000120000  0.0013090000  0.3952700000  0.0436220000  1.0000000000  0.0000000000
  0.0000000000  0.0000000000  0.0000000000  0.0000000000  0.0000000000  1.0000000000
* d-type functions
    9    4
        140.25270000
         41.72610000
         15.39810000
          6.27710000
          2.61850000
          1.05260000
          0.39160000
          0.12620000
          0.04067000
  0.0033760000 -0.0034950000  0.0000000000  0.0000000000
  0.0251410000 -0.0260150000  0.0000000000  0.0000000000
  0.0977460000 -0.1038760000  0.0000000000  0.0000000000
  0.2347090000 -0.2520700000  0.0000000000  0.0000000000
  0.3469450000 -0.2945800000  0.0000000000  0.0000000000
  0.3510680000  0.0011520000  0.0000000000  0.0000000000
  0.2502550000  0.4385890000  0.0000000000  0.0000000000
  0.1000820000  0.5436260000  1.0000000000  0.0000000000
  0.0000000000  0.0000000000  0.0000000000  1.0000000000
* f-type functions
    3    2
          4.34550000
          1.06800000
          0.40830000
  0.4174290000  0.0000000000
  0.7714830000  0.0000000000
  0.0000000000  1.0000000000

/Cu.aug-cc-pVDZ.Balabanov.21s17p9d3f.7s6p4d2f.
N.B. Balabanov, K.A. Peterson. J. Chem. Phys. 123 (2005) 064107. doi:10.1063/1.1998907
COPPER (21s,17p,9d,3f) -> [7s,6p,4d,2f]
    29.0   3
* s-type functions
   21    7
    5430321.00000000
     813166.50000000
     185054.40000000
      52414.66000000
      17098.68000000
       6171.99400000
       2406.48100000
        997.25840000
        433.92890000
        196.28690000
         91.04280000
         41.38425000
         19.93278000
          9.58189100
          4.23451600
          1.98581400
          0.86708300
          0.18133900
          0.08365700
          0.03626700
          0.01572000
  7.8010260e-6 -4.4047060e-6  9.7046820e-7 -1.9593540e-7 -3.5322290e-7  0.0000000000  0.0000000000
  6.0656660e-5 -3.4248010e-5  7.5492450e-6 -1.5234720e-6 -2.7988120e-6  0.0000000000  0.0000000000
  0.0003188964 -0.0001801238  3.9688920e-5 -8.0148080e-6 -1.4325170e-5  0.0000000000  0.0000000000
  0.0013446870 -0.0007600455  0.0001677200 -3.3839920e-5 -6.2709460e-5  0.0000000000  0.0000000000
  0.0048690500 -0.0027593480  0.0006095101 -0.0001231191 -0.0002179490  0.0000000000  0.0000000000
  0.0156101300 -0.0089009700  0.0019788460 -0.0003992085 -0.0007474316  0.0000000000  0.0000000000
  0.0445207700 -0.0257937800  0.0057980490 -0.0011719000 -0.0020492710  0.0000000000  0.0000000000
  0.1103111000 -0.0662386100  0.0153415800 -0.0030961410 -0.0058852030  0.0000000000  0.0000000000
  0.2220342000 -0.1445927000  0.0354048400 -0.0071719930 -0.0122688500  0.0000000000  0.0000000000
  0.3133739000 -0.2440110000  0.0670209800 -0.0135662100 -0.0268314700  0.0000000000  0.0000000000
  0.2315121000 -0.2504837000  0.0802694500 -0.0164398900 -0.0247926100  0.0000000000  0.0000000000
  0.0764092000  0.0285257700 -0.0192723100  0.0041076280 -0.0059847460  0.0000000000  0.0000000000
  0.1103818000  0.5115874000 -0.3160129000  0.0669396400  0.1557124000  0.0000000000  0.0000000000
  0.1094372000  0.4928061000 -0.4573162000  0.1028221000  0.1436683000  0.0000000000  0.0000000000
  0.0183631100  0.0878843700  0.1550841000 -0.0442294500  0.0083741030  0.0000000000  0.0000000000
 -0.0006043084 -0.0058202810  0.7202872000 -0.2031191000 -0.7460711000  0.0000000000  0.0000000000
  5.0922450e-5  0.0002013508  0.3885122000 -0.2230022000  0.1244367000  0.0000000000  0.0000000000
 -0.0000554073 -0.0005182553  0.0192432600  0.2517975000  1.5101100000  0.0000000000  0.0000000000
  3.9694820e-5  0.0003731503 -0.0071038070  0.5650091000 -0.3477122000  0.0000000000  0.0000000000
 -1.2695380e-5 -0.0001193171  0.0032729060  0.3247243000 -0.9774169000  1.0000000000  0.0000000000
  0.0000000000  0.0000000000  0.0000000000  0.0000000000  0.0000000000  0.0000000000  1.0000000000
* p-type functions
   17    6
      22760.57000000
       5387.67900000
       1749.94500000
        669.66530000
        284.19480000
        129.60770000
         62.25415000
         30.92964000
         15.75827000
          8.09421100
          4.04692100
          1.96786900
          0.92529500
          0.35299200
          0.12730700
          0.04435600
          0.01545000
  0.0000400000 -0.0000150000  0.0000030000  0.0000050000  0.0000000000  0.0000000000
  0.0003610000 -0.0001310000  0.0000250000  0.0000490000  0.0000000000  0.0000000000
  0.0020830000 -0.0007550000  0.0001470000  0.0002780000  0.0000000000  0.0000000000
  0.0091970000 -0.0033590000  0.0006560000  0.0012530000  0.0000000000  0.0000000000
  0.0326600000 -0.0120810000  0.0023510000  0.0044470000  0.0000000000  0.0000000000
  0.0937950000 -0.0357030000  0.0070040000  0.0133700000  0.0000000000  0.0000000000
[...]
  0.0016047000 -0.0004954000  0.0001895000 -0.0000440000  0.0000000000  0.0000000000
  0.0083402000 -0.0026208000  0.0009964000 -0.0002305000  0.0000000000  0.0000000000
  0.0340248000 -0.0106839000  0.0041082000 -0.0009544000  0.0000000000  0.0000000000
  0.1111699000 -0.0374123000  0.0142938000 -0.0033055000  0.0000000000  0.0000000000
  0.2753930000 -0.1009636000  0.0398034000 -0.0092888000  0.0000000000  0.0000000000
  0.4212628000 -0.2145141000  0.0855940000 -0.0198644000  0.0000000000  0.0000000000
  0.2738906000 -0.1752297000  0.0796305000 -0.0190888000  0.0000000000  0.0000000000
  0.0283720000  0.4831599000 -0.2939107000  0.0732356000  0.0000000000  0.0000000000
 -0.0062931000  0.6323677000 -0.5263914000  0.1341526000  0.0000000000  0.0000000000
  0.0020606000  0.0684942000  0.5864249000 -0.1831929000  0.0000000000  0.0000000000
 -0.0009269000 -0.0118712000  0.6726347000 -0.3571308000  0.0000000000  0.0000000000
  0.0002273000  0.0026652000  0.0276123000  0.6246013000  0.0000000000  0.0000000000
 -0.0001063000 -0.0012251000 -0.0093651000  0.5238430000  1.0000000000  0.0000000000
  0.0000000000  0.0000000000  0.0000000000  0.0000000000  0.0000000000  1.0000000000
* p-type functions
   12    5
       3248.60000000
        769.97000000
        248.20000000
         93.36400000
         38.25100000
         16.42200000
          6.79180000
          2.83360000
          1.10620000
          0.22250000
          0.06177200
          0.01516400
  0.0015260000 -0.0005803000  0.0000950000  0.0000000000  0.0000000000
  0.0127486000 -0.0048647000  0.0007832000  0.0000000000  0.0000000000
  0.0633742000 -0.0248394000  0.0040855000  0.0000000000  0.0000000000
  0.2065775000 -0.0841759000  0.0135987000  0.0000000000  0.0000000000
  0.4092963000 -0.1800885000  0.0302695000  0.0000000000  0.0000000000
  0.3919183000 -0.1585555000  0.0241790000  0.0000000000  0.0000000000
  0.1029441000  0.2355376000 -0.0423777000  0.0000000000  0.0000000000
 -0.0007203000  0.5820587000 -0.1265661000  0.0000000000  0.0000000000
  0.0020950000  0.3366619000 -0.0499444000  0.0000000000  0.0000000000
 -0.0003290000  0.0171912000  0.4494199000  0.0000000000  0.0000000000
  0.0001162000 -0.0033265000  0.6718899000  1.0000000000  0.0000000000
  0.0000000000  0.0000000000  0.0000000000  0.0000000000  1.0000000000
* d-type functions
    7    3
         65.33700000
         18.49700000
          6.31500000
          2.16350000
          0.66675000
          0.18840000
          0.05370000
  0.0273825000  0.0000000000  0.0000000000
  0.1510805000  0.0000000000  0.0000000000
  0.3749217000  0.0000000000  0.0000000000
  0.4750799000  0.0000000000  0.0000000000
  0.2982750000  0.0000000000  0.0000000000
  0.0000000000  1.0000000000  0.0000000000
  0.0000000000  0.0000000000  1.0000000000

/Ge.aug-cc-pVDZ.Wilson.15s12p7d.6s5p3d.
A.K. Wilson, D.E. Woon, K.A. Peterson, T.H. Dunning. J. Chem. Phys. 110 (1999) 7667-7676. doi:10.1063/1.478678
GERMANIUM (15s,12p,7d) -> [6s,5p,3d]
    32.0   2
* s-type functions
   15    6
     521800.00000000
      78214.00000000
      17803.00000000
       5041.90000000
       1644.50000000
        593.43000000
        231.36000000
         94.76200000
         29.27400000
         12.45000000
          3.64630000
          1.50250000
          0.24503000
          0.09159400
          0.03396100
  0.0002045000 -0.0000638000  0.0000246000 -0.0000063000  0.0000000000  0.0000000000
  0.0015868000 -0.0004916000  0.0001900000 -0.0000486000  0.0000000000  0.0000000000
  0.0082480000 -0.0026002000  0.0009993000 -0.0002553000  0.0000000000  0.0000000000
  0.0336649000 -0.0106080000  0.0041200000 -0.0010560000  0.0000000000  0.0000000000
  0.1101249000 -0.0371602000  0.0143557000 -0.0036674000  0.0000000000  0.0000000000
  0.2735607000 -0.1005790000  0.0400375000 -0.0103053000  0.0000000000  0.0000000000
  0.4210670000 -0.2143977000  0.0865794000 -0.0222200000  0.0000000000  0.0000000000
  0.2766791000 -0.1782617000  0.0815861000 -0.0215275000  0.0000000000  0.0000000000
  0.0292180000  0.4777404000 -0.2934770000  0.0806752000  0.0000000000  0.0000000000
 -0.0065903000  0.6355983000 -0.5367983000  0.1524958000  0.0000000000  0.0000000000
  0.0022430000  0.0722174000  0.5637985000 -0.1980528000  0.0000000000  0.0000000000
 -0.0010382000 -0.0127265000  0.6947182000 -0.4073954000  0.0000000000  0.0000000000
  0.0002695000  0.0029608000  0.0315730000  0.6477288000  0.0000000000  0.0000000000
 -0.0001228000 -0.0013292000 -0.0098949000  0.5222033000  1.0000000000  0.0000000000
  0.0000000000  0.0000000000  0.0000000000  0.0000000000  0.0000000000  1.0000000000
* p-type functions
   12    5
       3568.10000000
        845.72000000
        272.74000000
        102.68000000
         42.14800000
         18.14900000
          7.59340000
          3.19640000
          1.27430000
          0.28258000
          0.08409000
          0.02394500
  0.0014591000 -0.0005630000  0.0001115000  0.0000000000  0.0000000000
  0.0122176000 -0.0047354000  0.0009212000  0.0000000000  0.0000000000
  0.0610490000 -0.0242643000  0.0048273000  0.0000000000  0.0000000000
  0.2008039000 -0.0830900000  0.0162272000  0.0000000000  0.0000000000
  0.4038942000 -0.1800247000  0.0366354000  0.0000000000  0.0000000000
  0.3970027000 -0.1663295000  0.0307867000  0.0000000000  0.0000000000
  0.1105481000  0.2193717000 -0.0480643000  0.0000000000  0.0000000000
  0.0000768000  0.5820239000 -0.1559804000  0.0000000000  0.0000000000
  0.0021263000  0.3477720000 -0.0632370000  0.0000000000  0.0000000000
 -0.0003744000  0.0192455000  0.5040819000  0.0000000000  0.0000000000
  0.0001321000 -0.0034825000  0.6182200000  1.0000000000  0.0000000000
  0.0000000000  0.0000000000  0.0000000000  0.0000000000  1.0000000000
* d-type functions
    7    3
         74.76200000
         21.30200000
          7.34360000
          2.56510000
          0.81970000
          0.24700000
          0.07710000
  0.0257684000  0.0000000000  0.0000000000
  0.1454421000  0.0000000000  0.0000000000
  0.3713721000  0.0000000000  0.0000000000
  0.4800002000  0.0000000000  0.0000000000
  0.2896800000  0.0000000000  0.0000000000
  0.0000000000  1.0000000000  0.0000000000
  0.0000000000  0.0000000000  1.0000000000

/As.aug-cc-pVDZ.Wilson.15s12p7d.6s5p3d.
A.K. Wilson, D.E. Woon, K.A. Peterson, T.H. Dunning. J. Chem. Phys. 110 (1999) 7667-7676. doi:10.1063/1.478678
ARSENIC (15s,12p,7d) -> [6s,5p,3d]
    33.0   2
* s-type functions
   15    6
     559583.80000000
      83879.33000000
      19092.67000000
       5407.39200000
       1763.75600000
        636.45670000
        248.08840000
        101.57850000
         31.47551000
         13.43728000
          4.00869000
          1.68492900
          0.30001900
          0.11358700
          0.04115200
  0.0002024000 -0.0000634000  0.0000246000 -0.0000068000  0.0000000000  0.0000000000
  0.0015709000 -0.0004883000  0.0001907000 -0.0000525000  0.0000000000  0.0000000000
  0.0081662000 -0.0025821000  0.0010031000 -0.0002756000  0.0000000000  0.0000000000
  0.0333399000 -0.0105402000  0.0041353000 -0.0011389000  0.0000000000  0.0000000000
  0.1091726000 -0.0369325000  0.0144259000 -0.0039646000  0.0000000000  0.0000000000
  0.2718853000 -0.1002355000  0.0402962000 -0.0111423000  0.0000000000  0.0000000000
  0.4208509000 -0.2142948000  0.0875670000 -0.0241991000  0.0000000000  0.0000000000
  0.2792257000 -0.1810526000  0.0835178000 -0.0236339000  0.0000000000  0.0000000000
  0.0300301000  0.4725410000 -0.2932935000  0.0866317000  0.0000000000  0.0000000000
 -0.0068804000  0.6386194000 -0.5470520000  0.1685839000  0.0000000000  0.0000000000
  0.0024240000  0.0758107000  0.5438738000 -0.2091425000  0.0000000000  0.0000000000
 -0.0011491000 -0.0135278000  0.7143591000 -0.4500918000  0.0000000000  0.0000000000
  0.0003095000  0.0031970000  0.0353443000  0.6603978000  0.0000000000  0.0000000000
 -0.0001377000 -0.0014056000 -0.0102892000  0.5284152000  1.0000000000  0.0000000000
  0.0000000000  0.0000000000  0.0000000000  0.0000000000  0.0000000000  1.0000000000
* p-type functions
   12    5
       3886.35600000
        921.20200000
        297.19320000
        111.97510000
         46.03462000
         19.87419000
          8.38608800
          3.55872800
          1.44728200
          0.34777900
          0.10769900
          0.03126800
  0.0014097000 -0.0005519000  0.0001236000  0.0000000000  0.0000000000
  0.0118277000 -0.0046550000  0.0010240000  0.0000000000  0.0000000000
  0.0593280000 -0.0239176000  0.0053805000  0.0000000000  0.0000000000
  0.1965115000 -0.0825627000  0.0182443000  0.0000000000  0.0000000000
  0.3997891000 -0.1806791000  0.0415979000  0.0000000000  0.0000000000
  0.4004653000 -0.1724848000  0.0362998000  0.0000000000  0.0000000000
  0.1164196000  0.2086700000 -0.0523569000  0.0000000000  0.0000000000
  0.0006918000  0.5823622000 -0.1791667000  0.0000000000  0.0000000000
  0.0021633000  0.3537465000 -0.0740477000  0.0000000000  0.0000000000
 -0.0004150000  0.0206439000  0.5358094000  0.0000000000  0.0000000000
  0.0001452000 -0.0036382000  0.5888104000  1.0000000000  0.0000000000
  0.0000000000  0.0000000000  0.0000000000  0.0000000000  1.0000000000
* d-type functions
    7    3
         84.42423000
         24.18159000
          8.40177700
          2.98050200
          0.97900300
          0.30980000
          0.10780000
  0.0245288000  0.0000000000  0.0000000000
  0.1411340000  0.0000000000  0.0000000000
  0.3687579000  0.0000000000  0.0000000000
  0.4840626000  0.0000000000  0.0000000000
  0.2824434000  0.0000000000  0.0000000000
  0.0000000000  1.0000000000  0.0000000000
  0.0000000000  0.0000000000  1.0000000000

/Se.aug-cc-pVDZ.Wilson.15s12p7d.6s5p3d.
A.K. Wilson, D.E. Woon, K.A. Peterson, T.H. Dunning. J. Chem. Phys. 110 (1999) 7667-7676. doi:10.1063/1.478678
SELENIUM (15s,12p,7d) -> [6s,5p,3d]
    34.0   2
* s-type functions
   15    6
     598990.00000000
      89783.00000000
      20435.00000000
       5786.90000000
       1887.30000000
        680.97000000
        265.39000000
        108.63000000
         33.76000000
         14.46500000
          4.38900000
          1.87830000
          0.35859000
          0.13649000
          0.04874700
  0.0002004000 -0.0000629000  0.0000247000 -0.0000072000  0.0000000000  0.0000000000
  0.0015554000 -0.0004850000  0.0001913000 -0.0000559000  0.0000000000  0.0000000000
  0.0080872000 -0.0025644000  0.0010068000 -0.0002938000  0.0000000000  0.0000000000
  0.0330344000 -0.0104761000  0.0041514000 -0.0012136000  0.0000000000  0.0000000000
  0.1082924000 -0.0367223000  0.0144991000 -0.0042340000  0.0000000000  0.0000000000
  0.2703361000 -0.0999225000  0.0405658000 -0.0119035000  0.0000000000  0.0000000000
  0.4206236000 -0.2141973000  0.0885364000 -0.0260206000  0.0000000000  0.0000000000
  0.2815922000 -0.1836593000  0.0854212000 -0.0256148000  0.0000000000  0.0000000000
  0.0308110000  0.4675454000 -0.2932581000  0.0919427000  0.0000000000  0.0000000000
 -0.0071617000  0.6414740000 -0.5570727000  0.1838700000  0.0000000000  0.0000000000
  0.0026022000  0.0792569000  0.5261436000 -0.2188461000  0.0000000000  0.0000000000
 -0.0012583000 -0.0142697000  0.7320371000 -0.4896524000  0.0000000000  0.0000000000
  0.0003465000  0.0033792000  0.0388246000  0.6775818000  0.0000000000  0.0000000000
 -0.0001503000 -0.0014537000 -0.0105036000  0.5296721000  1.0000000000  0.0000000000
  0.0000000000  0.0000000000  0.0000000000  0.0000000000  0.0000000000  1.0000000000
* p-type functions
   12    5
       4135.60000000
        980.34000000
        316.35000000
        119.25000000
         49.06800000
         21.21200000
          8.94620000
          3.82360000
          1.58830000
          0.40969000
          0.12459000
          0.03549200
  0.0014127000 -0.0005610000  0.0001366000  0.0000000000  0.0000000000
  0.0118588000 -0.0047340000  0.0011308000  0.0000000000  0.0000000000
  0.0595153000 -0.0243504000  0.0059581000  0.0000000000  0.0000000000
  0.1972201000 -0.0841071000  0.0201866000  0.0000000000  0.0000000000
  0.4007439000 -0.1841384000  0.0461939000  0.0000000000  0.0000000000
  0.3994740000 -0.1735004000  0.0394050000  0.0000000000  0.0000000000
  0.1153364000  0.2167263000 -0.0592846000  0.0000000000  0.0000000000
  0.0002219000  0.5850099000 -0.2014663000  0.0000000000  0.0000000000
  0.0022838000  0.3416816000 -0.0687821000  0.0000000000  0.0000000000
 -0.0004756000  0.0199125000  0.5595944000  0.0000000000  0.0000000000
  0.0001516000 -0.0026131000  0.5709784000  1.0000000000  0.0000000000
  0.0000000000  0.0000000000  0.0000000000  0.0000000000  1.0000000000
* d-type functions
    7    3
         94.47200000
         27.18000000
          9.50680000
          3.41680000
          1.14790000
          0.36820000
          0.12830000
  0.0234982000  0.0000000000  0.0000000000
  0.1375183000  0.0000000000  0.0000000000
  0.3664824000  0.0000000000  0.0000000000
  0.4874717000  0.0000000000  0.0000000000
  0.2765769000  0.0000000000  0.0000000000
  0.0000000000  1.0000000000  0.0000000000
  0.0000000000  0.0000000000  1.0000000000

/Br.aug-cc-pVDZ.Wilson.15s12p7d.6s5p3d.
A.K. Wilson, D.E. Woon, K.A. Peterson, T.H. Dunning. J. Chem. Phys. 110 (1999) 7667-7676. doi:10.1063/1.478678
BROMINE (15s,12p,7d) -> [6s,5p,3d]
    35.0   2
* s-type functions
   15    6
     640100.00000000
      95938.00000000
      21833.00000000
       6181.90000000
       2015.70000000
        727.10000000
        283.28000000
        115.91000000
         36.12400000
         15.53200000
          4.78570000
          2.08170000
          0.42028000
          0.16069000
          0.05694600
  0.0001984000 -0.0000625000  0.0000248000 -0.0000076000  0.0000000000  0.0000000000
  0.0015400000 -0.0004816000  0.0001919000 -0.0000588000  0.0000000000  0.0000000000
  0.0080096000 -0.0025466000  0.0010100000 -0.0003092000  0.0000000000  0.0000000000
  0.0327341000 -0.0104112000  0.0041659000 -0.0012766000  0.0000000000  0.0000000000
  0.1074480000 -0.0365179000  0.0145683000 -0.0044634000  0.0000000000  0.0000000000
  0.2688946000 -0.0996295000  0.0408345000 -0.0125575000  0.0000000000  0.0000000000
  0.4204411000 -0.2141310000  0.0894859000 -0.0276145000  0.0000000000  0.0000000000
  0.2838041000 -0.1860911000  0.0872786000 -0.0273945000  0.0000000000  0.0000000000
  0.0315455000  0.4628261000 -0.2933644000  0.0964094000  0.0000000000  0.0000000000
 -0.0074268000  0.6441141000 -0.5667109000  0.1976871000  0.0000000000  0.0000000000
  0.0027728000  0.0825502000  0.5105658000 -0.2266693000  0.0000000000  0.0000000000
 -0.0013635000 -0.0149694000  0.7477214000 -0.5241165000  0.0000000000  0.0000000000
  0.0003812000  0.0035288000  0.0421512000  0.6889865000  0.0000000000  0.0000000000
 -0.0001615000 -0.0014909000 -0.0106612000  0.5344331000  1.0000000000  0.0000000000
  0.0000000000  0.0000000000  0.0000000000  0.0000000000  0.0000000000  1.0000000000
* p-type functions
   12    5
       4340.80000000
       1028.90000000
        332.02000000
        125.16000000
         51.51100000
         22.28100000
          9.34170000
          4.01320000
          1.70020000
          0.47194000
          0.14421000
          0.04104900
  0.0014448000 -0.0005819000  0.0001518000  0.0000000000  0.0000000000
  0.0121288000 -0.0049065000  0.0012563000  0.0000000000  0.0000000000
  0.0608077000 -0.0252514000  0.0066224000  0.0000000000  0.0000000000
  0.2009358000 -0.0869445000  0.0223816000  0.0000000000  0.0000000000
  0.4047419000 -0.1893422000  0.0509717000  0.0000000000  0.0000000000
  0.3957151000 -0.1710882000  0.0414009000  0.0000000000  0.0000000000
  0.1102213000  0.2368755000 -0.0703970000  0.0000000000  0.0000000000
 -0.0009090000  0.5898400000 -0.2232540000  0.0000000000  0.0000000000
  0.0024832000  0.3171944000 -0.0564179000  0.0000000000  0.0000000000
 -0.0005744000  0.0179833000  0.5808079000  0.0000000000  0.0000000000
  0.0001691000 -0.0014683000  0.5508132000  1.0000000000  0.0000000000
  0.0000000000  0.0000000000  0.0000000000  0.0000000000  1.0000000000
* d-type functions
    7    3
        104.83000000
         30.27200000
         10.64900000
          3.86960000
          1.32390000
          0.40980000
          0.17190000
  0.0226583000  0.0000000000  0.0000000000
  0.1345895000  0.0000000000  0.0000000000
  0.3647181000  0.0000000000  0.0000000000
  0.4904196000  0.0000000000  0.0000000000
  0.2713885000  0.0000000000  0.0000000000
  0.0000000000  1.0000000000  0.0000000000
  0.0000000000  0.0000000000  1.0000000000

/Kr.aug-cc-pVDZ.Wilson.15s12p7d.6s5p3d.
A.K. Wilson, D.E. Woon, K.A. Peterson, T.H. Dunning. J. Chem. Phys. 110 (1999) 7667-7676. doi:10.1063/1.478678
KRYPTON (15s,12p,7d) -> [6s,5p,3d]
    36.0   2
* s-type functions
   15    6
     681358.80000000
     102126.50000000
      23243.71000000
       6582.00700000
       2146.42900000
        774.33780000
        301.67020000
        123.41180000
         38.56755000
         16.63738000
          5.19879500
          2.29481400
          0.48521100
          0.18627000
          0.06514500
  0.0001969000 -0.0000622000  0.0000249000 -0.0000079000  0.0000000000  0.0000000000
  0.0015286000 -0.0004794000  0.0001928000 -0.0000614000  0.0000000000  0.0000000000
  0.0079500000 -0.0025341000  0.0010149000 -0.0003230000  0.0000000000  0.0000000000
  0.0324938000 -0.0103636000  0.0041857000 -0.0013330000  0.0000000000  0.0000000000
  0.1067240000 -0.0363516000  0.0146459000 -0.0046672000  0.0000000000  0.0000000000
  0.2675701000 -0.0993737000  0.0411070000 -0.0131352000  0.0000000000  0.0000000000
  0.4201851000 -0.2140610000  0.0903955000 -0.0290342000  0.0000000000  0.0000000000
  0.2858015000 -0.1883192000  0.0890623000 -0.0290173000  0.0000000000  0.0000000000
  0.0322461000  0.4583816000 -0.2935718000  0.1002664000  0.0000000000  0.0000000000
 -0.0076828000  0.6465664000 -0.5759698000  0.2103818000  0.0000000000  0.0000000000
  0.0029393000  0.0856579000  0.4968578000 -0.2332471000  0.0000000000  0.0000000000
 -0.0014662000 -0.0156123000  0.7616895000 -0.5546497000  0.0000000000  0.0000000000
  0.0004144000  0.0036490000  0.0453267000  0.6969522000  0.0000000000  0.0000000000
 -0.0001720000 -0.0015189000 -0.0107722000  0.5408152000  1.0000000000  0.0000000000
  0.0000000000  0.0000000000  0.0000000000  0.0000000000  0.0000000000  1.0000000000
* p-type functions
   12    5
       4474.27000000
       1060.57900000
        342.20810000
        128.99840000
         53.08722000
         22.95942000
          9.50730000
          4.08305500
          1.75044600
          0.52919000
          0.16436900
          0.04660600
  0.0015195000 -0.0006208000  0.0001701000  0.0000000000  0.0000000000
  0.0127424000 -0.0052212000  0.0014064000  0.0000000000  0.0000000000
  0.0636465000 -0.0268463000  0.0073963000  0.0000000000  0.0000000000
  0.2085635000 -0.0915823000  0.0248254000  0.0000000000  0.0000000000
  0.4122423000 -0.1968164000  0.0557155000  0.0000000000  0.0000000000
  0.3878103000 -0.1634750000  0.0412132000  0.0000000000  0.0000000000
  0.1003820000  0.2738204000 -0.0876057000  0.0000000000  0.0000000000
 -0.0025078000  0.5981592000 -0.2440586000  0.0000000000  0.0000000000
  0.0027139000  0.2750453000 -0.0295007000  0.0000000000  0.0000000000
 -0.0006977000  0.0127706000  0.6012295000  0.0000000000  0.0000000000
  0.0002107000 -0.0010135000  0.5254807000  1.0000000000  0.0000000000
  0.0000000000  0.0000000000  0.0000000000  0.0000000000  1.0000000000
* d-type functions
    7    3
        115.52530000
         33.46525000
         11.83046000
          4.33977100
          1.50752400
          0.50300000
          0.21550000
  0.0219557000  0.0000000000  0.0000000000
  0.1321620000  0.0000000000  0.0000000000
  0.3633484000  0.0000000000  0.0000000000
  0.4929582000  0.0000000000  0.0000000000
  0.2667560000  0.0000000000  0.0000000000
  0.0000000000  1.0000000000  0.0000000000
  0.0000000000  0.0000000000  1.0000000000
