************************************************************************
* This file is part of OpenMolcas.                                     *
*                                                                      *
* OpenMolcas is free software; you can redistribute it and/or modify   *
* it under the terms of the GNU Lesser General Public License, v. 2.1. *
* OpenMolcas is distributed in the hope that it will be useful, but it *
* is provided "as is" and without any express or implied warranties.   *
* For more details see the full text of the license in the file        *
* LICENSE or in <http://www.gnu.org/licenses/>.                        *
************************************************************************

#Hamiltonian NRH
#Nucleus UNK
#Contraction CCC
#AllElectron AE_

************************************************************************
* This file has been generated from Basis Set Exchange data:           *
*   https://www.basissetexchange.org                                   *
* Version: 1  (Data from ccRepo/Grant Hill)                            *
************************************************************************

/H.aug-cc-pV6Z.Peterson.11s6p5d4f3g2h.7s6p5d4f3g2h.
K.A. Peterson, D.E. Woon, T.H. Dunning, Jr. J. Chem. Phys. 100 (1994) 7410-7415. doi:10.1063/1.466884
HYDROGEN (11s,6p,5d,4f,3g,2h) -> [7s,6p,5d,4f,3g,2h]
     1.0   5
* s-type functions
   11    7
       1776.77600000
        254.01770000
         54.69804000
         15.01834000
          4.91507800
          1.79492400
          0.71071600
          0.30480200
          0.13804600
          0.06215700
          0.01890000
  0.0000440000  0.0000000000  0.0000000000  0.0000000000  0.0000000000  0.0000000000  0.0000000000
  0.0003720000  0.0000000000  0.0000000000  0.0000000000  0.0000000000  0.0000000000  0.0000000000
  0.0020940000  0.0000000000  0.0000000000  0.0000000000  0.0000000000  0.0000000000  0.0000000000
  0.0088630000  0.0000000000  0.0000000000  0.0000000000  0.0000000000  0.0000000000  0.0000000000
  0.0305400000  0.0000000000  0.0000000000  0.0000000000  0.0000000000  0.0000000000  0.0000000000
  0.0903420000  1.0000000000  0.0000000000  0.0000000000  0.0000000000  0.0000000000  0.0000000000
  0.2132390000  0.0000000000  1.0000000000  0.0000000000  0.0000000000  0.0000000000  0.0000000000
  0.3523500000  0.0000000000  0.0000000000  1.0000000000  0.0000000000  0.0000000000  0.0000000000
  0.3396570000  0.0000000000  0.0000000000  0.0000000000  1.0000000000  0.0000000000  0.0000000000
  0.1073300000  0.0000000000  0.0000000000  0.0000000000  0.0000000000  1.0000000000  0.0000000000
  0.0000000000  0.0000000000  0.0000000000  0.0000000000  0.0000000000  0.0000000000  1.0000000000
* p-type functions
    6    6
          8.64900000
          3.43000000
          1.36000000
          0.53900000
          0.21400000
          0.06700000
  1.0000000000  0.0000000000  0.0000000000  0.0000000000  0.0000000000  0.0000000000
  0.0000000000  1.0000000000  0.0000000000  0.0000000000  0.0000000000  0.0000000000
  0.0000000000  0.0000000000  1.0000000000  0.0000000000  0.0000000000  0.0000000000
  0.0000000000  0.0000000000  0.0000000000  1.0000000000  0.0000000000  0.0000000000
  0.0000000000  0.0000000000  0.0000000000  0.0000000000  1.0000000000  0.0000000000
  0.0000000000  0.0000000000  0.0000000000  0.0000000000  0.0000000000  1.0000000000
* d-type functions
    5    5
          4.45300000
          1.95800000
          0.86100000
          0.37800000
          0.12600000
  1.0000000000  0.0000000000  0.0000000000  0.0000000000  0.0000000000
  0.0000000000  1.0000000000  0.0000000000  0.0000000000  0.0000000000
  0.0000000000  0.0000000000  1.0000000000  0.0000000000  0.0000000000
  0.0000000000  0.0000000000  0.0000000000  1.0000000000  0.0000000000
  0.0000000000  0.0000000000  0.0000000000  0.0000000000  1.0000000000
* f-type functions
    4    4
          4.10000000
          1.78000000
          0.77300000
          0.24500000
  1.0000000000  0.0000000000  0.0000000000  0.0000000000
  0.0000000000  1.0000000000  0.0000000000  0.0000000000
  0.0000000000  0.0000000000  1.0000000000  0.0000000000
  0.0000000000  0.0000000000  0.0000000000  1.0000000000
* g-type functions
    3    3
          3.19900000
          1.32600000
          0.40700000
  1.0000000000  0.0000000000  0.0000000000
  0.0000000000  1.0000000000  0.0000000000
  0.0000000000  0.0000000000  1.0000000000
* h-type functions
    2    2
          2.65300000
          0.68200000
  1.0000000000  0.0000000000
  0.0000000000  1.0000000000

/He.aug-cc-pV6Z.van_Mourik.11s6p5d4f3g2h.7s6p5d4f3g2h.
T. van Mourik, A.K. Wilson, T.H. Dunning, Jr. Mol. Phys. 96 (1999) 529-547. doi:10.1080/00268979909482990
HELIUM (11s,6p,5d,4f,3g,2h) -> [7s,6p,5d,4f,3g,2h]
     2.0   5
* s-type functions
   11    7
       4785.00000000
        717.00000000
        163.20000000
         46.26000000
         15.10000000
          5.43700000
          2.08800000
          0.82970000
          0.33660000
          0.13690000
          0.04473000
  0.0000006000  0.0000000000  0.0000000000  0.0000000000  0.0000000000  0.0000000000  0.0000000000
  0.0000047000  0.0000000000  0.0000000000  0.0000000000  0.0000000000  0.0000000000  0.0000000000
  0.0000244000  0.0000000000  0.0000000000  0.0000000000  0.0000000000  0.0000000000  0.0000000000
  0.0001012000  0.0000000000  0.0000000000  0.0000000000  0.0000000000  0.0000000000  0.0000000000
  0.0003486000  0.0000000000  0.0000000000  0.0000000000  0.0000000000  0.0000000000  0.0000000000
  0.0009841000  1.0000000000  0.0000000000  0.0000000000  0.0000000000  0.0000000000  0.0000000000
  0.0021631000  0.0000000000  1.0000000000  0.0000000000  0.0000000000  0.0000000000  0.0000000000
  0.0034905000  0.0000000000  0.0000000000  1.0000000000  0.0000000000  0.0000000000  0.0000000000
  0.0034660000  0.0000000000  0.0000000000  0.0000000000  1.0000000000  0.0000000000  0.0000000000
  0.0011519000  0.0000000000  0.0000000000  0.0000000000  0.0000000000  1.0000000000  0.0000000000
  0.0000000000  0.0000000000  0.0000000000  0.0000000000  0.0000000000  0.0000000000  1.0000000000
* p-type functions
    6    6
          0.38700000
          0.98400000
          2.49800000
          6.34200000
         16.10400000
          0.12800000
  1.0000000000  0.0000000000  0.0000000000  0.0000000000  0.0000000000  0.0000000000
  0.0000000000  1.0000000000  0.0000000000  0.0000000000  0.0000000000  0.0000000000
  0.0000000000  0.0000000000  1.0000000000  0.0000000000  0.0000000000  0.0000000000
  0.0000000000  0.0000000000  0.0000000000  1.0000000000  0.0000000000  0.0000000000
  0.0000000000  0.0000000000  0.0000000000  0.0000000000  1.0000000000  0.0000000000
  0.0000000000  0.0000000000  0.0000000000  0.0000000000  0.0000000000  1.0000000000
* d-type functions
    5    5
          0.74700000
          1.91000000
          4.88600000
         12.49800000
          0.24100000
  1.0000000000  0.0000000000  0.0000000000  0.0000000000  0.0000000000
  0.0000000000  1.0000000000  0.0000000000  0.0000000000  0.0000000000
  0.0000000000  0.0000000000  1.0000000000  0.0000000000  0.0000000000
  0.0000000000  0.0000000000  0.0000000000  1.0000000000  0.0000000000
  0.0000000000  0.0000000000  0.0000000000  0.0000000000  1.0000000000
* f-type functions
    4    4
          1.29200000
          3.46200000
          9.27600000
          0.40700000
  1.0000000000  0.0000000000  0.0000000000  0.0000000000
  0.0000000000  1.0000000000  0.0000000000  0.0000000000
  0.0000000000  0.0000000000  1.0000000000  0.0000000000
  0.0000000000  0.0000000000  0.0000000000  1.0000000000
* g-type functions
    3    3
          2.23600000
          6.58600000
          0.68600000
  1.0000000000  0.0000000000  0.0000000000
  0.0000000000  1.0000000000  0.0000000000
  0.0000000000  0.0000000000  1.0000000000
* h-type functions
    2    2
          4.15900000
          1.01600000
  1.0000000000  0.0000000000
  0.0000000000  1.0000000000

/B.aug-cc-pV6Z.van_Mourik.17s11p6d5f4g3h2i.8s7p6d5f4g3h2i.
T. van Mourik, A.K. Wilson, T.H. Dunning, Jr. Mol. Phys. 96 (1999) 529-547. doi:10.1080/00268979909482990
BORON (17s,11p,6d,5f,4g,3h,2i) -> [8s,7p,6d,5f,4g,3h,2i]
     5.0   6
* s-type functions
   17    8
     210400.00000000
      31500.00000000
       7169.00000000
       2030.00000000
        662.50000000
        239.20000000
         93.26000000
         38.64000000
         16.78000000
          7.54100000
          3.48200000
          1.61800000
          0.62700000
          0.29340000
          0.13100000
          0.05815000
          0.02300000
  0.0000058300 -0.0000011800  0.0000000000  0.0000000000  0.0000000000  0.0000000000  0.0000000000  0.0000000000
  0.0000453200 -0.0000091500  0.0000000000  0.0000000000  0.0000000000  0.0000000000  0.0000000000  0.0000000000
  0.0002383800 -0.0000481900  0.0000000000  0.0000000000  0.0000000000  0.0000000000  0.0000000000  0.0000000000
  0.0010057000 -0.0002030600  0.0000000000  0.0000000000  0.0000000000  0.0000000000  0.0000000000  0.0000000000
  0.0036449600 -0.0007391700  0.0000000000  0.0000000000  0.0000000000  0.0000000000  0.0000000000  0.0000000000
  0.0117362800 -0.0023860300  0.0000000000  0.0000000000  0.0000000000  0.0000000000  0.0000000000  0.0000000000
  0.0338070200 -0.0069865400  0.0000000000  0.0000000000  0.0000000000  0.0000000000  0.0000000000  0.0000000000
  0.0855659300 -0.0181159400  0.0000000000  0.0000000000  0.0000000000  0.0000000000  0.0000000000  0.0000000000
  0.1826032000 -0.0412312900  0.0000000000  0.0000000000  0.0000000000  0.0000000000  0.0000000000  0.0000000000
  0.3058376000 -0.0778135300  0.0000000000  0.0000000000  0.0000000000  0.0000000000  0.0000000000  0.0000000000
  0.3408035000 -0.1212318000  0.0000000000  0.0000000000  0.0000000000  0.0000000000  0.0000000000  0.0000000000
  0.1753504000 -0.1084302000  1.0000000000  0.0000000000  0.0000000000  0.0000000000  0.0000000000  0.0000000000
  0.0172183400  0.1101651000  0.0000000000  1.0000000000  0.0000000000  0.0000000000  0.0000000000  0.0000000000
 -0.0023197700  0.4192185000  0.0000000000  0.0000000000  1.0000000000  0.0000000000  0.0000000000  0.0000000000
  0.0010174800  0.4725292000  0.0000000000  0.0000000000  0.0000000000  1.0000000000  0.0000000000  0.0000000000
 -0.0001848300  0.1429450000  0.0000000000  0.0000000000  0.0000000000  0.0000000000  1.0000000000  0.0000000000
  0.0000000000  0.0000000000  0.0000000000  0.0000000000  0.0000000000  0.0000000000  0.0000000000  1.0000000000
* p-type functions
   11    7
        192.50000000
         45.64000000
         14.75000000
          5.50300000
          2.22200000
          0.95900000
          0.43140000
          0.19690000
          0.09033000
          0.04066000
          0.01365000
  0.0001349000  0.0000000000  0.0000000000  0.0000000000  0.0000000000  0.0000000000  0.0000000000
  0.0011474100  0.0000000000  0.0000000000  0.0000000000  0.0000000000  0.0000000000  0.0000000000
  0.0058479300  0.0000000000  0.0000000000  0.0000000000  0.0000000000  0.0000000000  0.0000000000
  0.0211709100  0.0000000000  0.0000000000  0.0000000000  0.0000000000  0.0000000000  0.0000000000
  0.0626687200  0.0000000000  0.0000000000  0.0000000000  0.0000000000  0.0000000000  0.0000000000
  0.1530276000  1.0000000000  0.0000000000  0.0000000000  0.0000000000  0.0000000000  0.0000000000
  0.2779789000  0.0000000000  1.0000000000  0.0000000000  0.0000000000  0.0000000000  0.0000000000
  0.3588891000  0.0000000000  0.0000000000  1.0000000000  0.0000000000  0.0000000000  0.0000000000
  0.2795015000  0.0000000000  0.0000000000  0.0000000000  1.0000000000  0.0000000000  0.0000000000
  0.0753264700  0.0000000000  0.0000000000  0.0000000000  0.0000000000  1.0000000000  0.0000000000
  0.0000000000  0.0000000000  0.0000000000  0.0000000000  0.0000000000  0.0000000000  1.0000000000
* d-type functions
    6    6
          2.88600000
          1.26700000
          0.55600000
          0.24400000
          0.10700000
          0.03920000
  1.0000000000  0.0000000000  0.0000000000  0.0000000000  0.0000000000  0.0000000000
  0.0000000000  1.0000000000  0.0000000000  0.0000000000  0.0000000000  0.0000000000
  0.0000000000  0.0000000000  1.0000000000  0.0000000000  0.0000000000  0.0000000000
  0.0000000000  0.0000000000  0.0000000000  1.0000000000  0.0000000000  0.0000000000
  0.0000000000  0.0000000000  0.0000000000  0.0000000000  1.0000000000  0.0000000000
  0.0000000000  0.0000000000  0.0000000000  0.0000000000  0.0000000000  1.0000000000
* f-type functions
    5    5
          1.65100000
          0.80020000
          0.38780000
          0.18800000
          0.07330000
  1.0000000000  0.0000000000  0.0000000000  0.0000000000  0.0000000000
  0.0000000000  1.0000000000  0.0000000000  0.0000000000  0.0000000000
  0.0000000000  0.0000000000  1.0000000000  0.0000000000  0.0000000000
  0.0000000000  0.0000000000  0.0000000000  1.0000000000  0.0000000000
  0.0000000000  0.0000000000  0.0000000000  0.0000000000  1.0000000000
* g-type functions
    4    4
          1.64690000
          0.78890000
          0.37790000
          0.16200000
  1.0000000000  0.0000000000  0.0000000000  0.0000000000
  0.0000000000  1.0000000000  0.0000000000  0.0000000000
  0.0000000000  0.0000000000  1.0000000000  0.0000000000
  0.0000000000  0.0000000000  0.0000000000  1.0000000000
* h-type functions
    3    3
          1.31200000
          0.58060000
          0.28800000
  1.0000000000  0.0000000000  0.0000000000
  0.0000000000  1.0000000000  0.0000000000
  0.0000000000  0.0000000000  1.0000000000
* i-type functions
    2    2
          0.98470000
          0.50000000
  1.0000000000  0.0000000000
  0.0000000000  1.0000000000

/C.aug-cc-pV6Z.van_Mourik.17s11p6d5f4g3h2i.8s7p6d5f4g3h2i.
T. van Mourik, A.K. Wilson, T.H. Dunning, Jr. Mol. Phys. 96 (1999) 529-547. doi:10.1080/00268979909482990
CARBON (17s,11p,6d,5f,4g,3h,2i) -> [8s,7p,6d,5f,4g,3h,2i]
     6.0   6
* s-type functions
   17    8
     312100.00000000
      46740.00000000
      10640.00000000
       3013.00000000
        982.80000000
        354.80000000
        138.40000000
         57.35000000
         24.92000000
         11.23000000
          5.20100000
          2.42600000
          0.96730000
          0.44560000
          0.19710000
          0.08635000
          0.03540000
  0.0000056700 -0.0000012100  0.0000000000  0.0000000000  0.0000000000  0.0000000000  0.0000000000  0.0000000000
  0.0000441000 -0.0000093900  0.0000000000  0.0000000000  0.0000000000  0.0000000000  0.0000000000  0.0000000000
  0.0002319000 -0.0000494700  0.0000000000  0.0000000000  0.0000000000  0.0000000000  0.0000000000  0.0000000000
  0.0009789700 -0.0002085700  0.0000000000  0.0000000000  0.0000000000  0.0000000000  0.0000000000  0.0000000000
  0.0035516300 -0.0007601500  0.0000000000  0.0000000000  0.0000000000  0.0000000000  0.0000000000  0.0000000000
  0.0114406100 -0.0024546900  0.0000000000  0.0000000000  0.0000000000  0.0000000000  0.0000000000  0.0000000000
  0.0329985500 -0.0072015300  0.0000000000  0.0000000000  0.0000000000  0.0000000000  0.0000000000  0.0000000000
  0.0840534700 -0.0188074200  0.0000000000  0.0000000000  0.0000000000  0.0000000000  0.0000000000  0.0000000000
  0.1806761000 -0.0432500100  0.0000000000  0.0000000000  0.0000000000  0.0000000000  0.0000000000  0.0000000000
  0.3049114000 -0.0825973300  0.0000000000  0.0000000000  0.0000000000  0.0000000000  0.0000000000  0.0000000000
  0.3414157000 -0.1285759000  0.0000000000  0.0000000000  0.0000000000  0.0000000000  0.0000000000  0.0000000000
  0.1771787000 -0.1076028000  1.0000000000  0.0000000000  0.0000000000  0.0000000000  0.0000000000  0.0000000000
  0.0189222700  0.1240773000  0.0000000000  1.0000000000  0.0000000000  0.0000000000  0.0000000000  0.0000000000
 -0.0017112100  0.4285177000  0.0000000000  0.0000000000  1.0000000000  0.0000000000  0.0000000000  0.0000000000
  0.0010357800  0.4612332000  0.0000000000  0.0000000000  0.0000000000  1.0000000000  0.0000000000  0.0000000000
 -0.0001520400  0.1376166000  0.0000000000  0.0000000000  0.0000000000  0.0000000000  1.0000000000  0.0000000000
  0.0000000000  0.0000000000  0.0000000000  0.0000000000  0.0000000000  0.0000000000  0.0000000000  1.0000000000
* p-type functions
   11    7
        295.20000000
         69.98000000
         22.64000000
          8.48500000
          3.45900000
          1.50400000
          0.67830000
          0.30870000
          0.14000000
          0.06178000
          0.02376000
  0.0001424900  0.0000000000  0.0000000000  0.0000000000  0.0000000000  0.0000000000  0.0000000000
  0.0012201000  0.0000000000  0.0000000000  0.0000000000  0.0000000000  0.0000000000  0.0000000000
  0.0063369600  0.0000000000  0.0000000000  0.0000000000  0.0000000000  0.0000000000  0.0000000000
  0.0235187500  0.0000000000  0.0000000000  0.0000000000  0.0000000000  0.0000000000  0.0000000000
  0.0699044700  0.0000000000  0.0000000000  0.0000000000  0.0000000000  0.0000000000  0.0000000000
  0.1654605000  1.0000000000  0.0000000000  0.0000000000  0.0000000000  0.0000000000  0.0000000000
  0.2871044000  0.0000000000  1.0000000000  0.0000000000  0.0000000000  0.0000000000  0.0000000000
  0.3528027000  0.0000000000  0.0000000000  1.0000000000  0.0000000000  0.0000000000  0.0000000000
  0.2653366000  0.0000000000  0.0000000000  0.0000000000  1.0000000000  0.0000000000  0.0000000000
  0.0717336100  0.0000000000  0.0000000000  0.0000000000  0.0000000000  1.0000000000  0.0000000000
  0.0000000000  0.0000000000  0.0000000000  0.0000000000  0.0000000000  0.0000000000  1.0000000000
* d-type functions
    6    6
          4.54200000
          1.97900000
          0.86210000
          0.37560000
          0.16360000
          0.06360000
  1.0000000000  0.0000000000  0.0000000000  0.0000000000  0.0000000000  0.0000000000
  0.0000000000  1.0000000000  0.0000000000  0.0000000000  0.0000000000  0.0000000000
  0.0000000000  0.0000000000  1.0000000000  0.0000000000  0.0000000000  0.0000000000
  0.0000000000  0.0000000000  0.0000000000  1.0000000000  0.0000000000  0.0000000000
  0.0000000000  0.0000000000  0.0000000000  0.0000000000  1.0000000000  0.0000000000
  0.0000000000  0.0000000000  0.0000000000  0.0000000000  0.0000000000  1.0000000000
* f-type functions
    5    5
          2.63100000
          1.25500000
          0.59880000
          0.28570000
          0.11800000
  1.0000000000  0.0000000000  0.0000000000  0.0000000000  0.0000000000
  0.0000000000  1.0000000000  0.0000000000  0.0000000000  0.0000000000
  0.0000000000  0.0000000000  1.0000000000  0.0000000000  0.0000000000
  0.0000000000  0.0000000000  0.0000000000  1.0000000000  0.0000000000
  0.0000000000  0.0000000000  0.0000000000  0.0000000000  1.0000000000
* g-type functions
    4    4
          2.65200000
          1.20400000
          0.54700000
          0.25400000
  1.0000000000  0.0000000000  0.0000000000  0.0000000000
  0.0000000000  1.0000000000  0.0000000000  0.0000000000
  0.0000000000  0.0000000000  1.0000000000  0.0000000000
  0.0000000000  0.0000000000  0.0000000000  1.0000000000
* h-type functions
    3    3
          2.03000000
          0.85110000
          0.45100000
  1.0000000000  0.0000000000  0.0000000000
  0.0000000000  1.0000000000  0.0000000000
  0.0000000000  0.0000000000  1.0000000000
* i-type functions
    2    2
          1.49100000
          0.77600000
  1.0000000000  0.0000000000
  0.0000000000  1.0000000000

/N.aug-cc-pV6Z.van_Mourik.17s11p6d5f4g3h2i.8s7p6d5f4g3h2i.
T. van Mourik, A.K. Wilson, T.H. Dunning, Jr. Mol. Phys. 96 (1999) 529-547. doi:10.1080/00268979909482990
NITROGEN (17s,11p,6d,5f,4g,3h,2i) -> [8s,7p,6d,5f,4g,3h,2i]
     7.0   6
* s-type functions
   17    8
     432300.00000000
      64700.00000000
      14720.00000000
       4170.00000000
       1361.00000000
        491.20000000
        191.60000000
         79.41000000
         34.53000000
         15.58000000
          7.23200000
          3.38200000
          1.36900000
          0.62480000
          0.27470000
          0.11920000
          0.04714000
  0.0000055900 -0.0000012300  0.0000000000  0.0000000000  0.0000000000  0.0000000000  0.0000000000  0.0000000000
  0.0000435100 -0.0000095800  0.0000000000  0.0000000000  0.0000000000  0.0000000000  0.0000000000  0.0000000000
  0.0002289300 -0.0000505100  0.0000000000  0.0000000000  0.0000000000  0.0000000000  0.0000000000  0.0000000000
  0.0009650200 -0.0002126400  0.0000000000  0.0000000000  0.0000000000  0.0000000000  0.0000000000  0.0000000000
  0.0035021900 -0.0007753400  0.0000000000  0.0000000000  0.0000000000  0.0000000000  0.0000000000  0.0000000000
  0.0112921200 -0.0025062400  0.0000000000  0.0000000000  0.0000000000  0.0000000000  0.0000000000  0.0000000000
  0.0326128300 -0.0073652900  0.0000000000  0.0000000000  0.0000000000  0.0000000000  0.0000000000  0.0000000000
  0.0832972700 -0.0193016700  0.0000000000  0.0000000000  0.0000000000  0.0000000000  0.0000000000  0.0000000000
  0.1799857000 -0.0447173800  0.0000000000  0.0000000000  0.0000000000  0.0000000000  0.0000000000  0.0000000000
  0.3050035000 -0.0860664700  0.0000000000  0.0000000000  0.0000000000  0.0000000000  0.0000000000  0.0000000000
  0.3411593000 -0.1332963000  0.0000000000  0.0000000000  0.0000000000  0.0000000000  0.0000000000  0.0000000000
  0.1774827000 -0.1059655000  1.0000000000  0.0000000000  0.0000000000  0.0000000000  0.0000000000  0.0000000000
  0.0198840900  0.1346673000  0.0000000000  1.0000000000  0.0000000000  0.0000000000  0.0000000000  0.0000000000
 -0.0012466300  0.4339401000  0.0000000000  0.0000000000  1.0000000000  0.0000000000  0.0000000000  0.0000000000
  0.0010401100  0.4529490000  0.0000000000  0.0000000000  0.0000000000  1.0000000000  0.0000000000  0.0000000000
 -0.0001265900  0.1340216000  0.0000000000  0.0000000000  0.0000000000  0.0000000000  1.0000000000  0.0000000000
  0.0000000000  0.0000000000  0.0000000000  0.0000000000  0.0000000000  0.0000000000  0.0000000000  1.0000000000
* p-type functions
   11    7
        415.90000000
         98.61000000
         31.92000000
         12.00000000
          4.91900000
          2.14800000
          0.96960000
          0.43990000
          0.19780000
          0.08603000
          0.03150000
  0.0001484100  0.0000000000  0.0000000000  0.0000000000  0.0000000000  0.0000000000  0.0000000000
  0.0012763400  0.0000000000  0.0000000000  0.0000000000  0.0000000000  0.0000000000  0.0000000000
  0.0067024200  0.0000000000  0.0000000000  0.0000000000  0.0000000000  0.0000000000  0.0000000000
  0.0252617000  0.0000000000  0.0000000000  0.0000000000  0.0000000000  0.0000000000  0.0000000000
  0.0751894300  0.0000000000  0.0000000000  0.0000000000  0.0000000000  0.0000000000  0.0000000000
  0.1740151000  1.0000000000  0.0000000000  0.0000000000  0.0000000000  0.0000000000  0.0000000000
  0.2927921000  0.0000000000  1.0000000000  0.0000000000  0.0000000000  0.0000000000  0.0000000000
  0.3482648000  0.0000000000  0.0000000000  1.0000000000  0.0000000000  0.0000000000  0.0000000000
  0.2559365000  0.0000000000  0.0000000000  0.0000000000  1.0000000000  0.0000000000  0.0000000000
  0.0694792900  0.0000000000  0.0000000000  0.0000000000  0.0000000000  1.0000000000  0.0000000000
  0.0000000000  0.0000000000  0.0000000000  0.0000000000  0.0000000000  0.0000000000  1.0000000000
* d-type functions
    6    6
          6.71700000
          2.89600000
          1.24900000
          0.53800000
          0.23200000
          0.08740000
  1.0000000000  0.0000000000  0.0000000000  0.0000000000  0.0000000000  0.0000000000
  0.0000000000  1.0000000000  0.0000000000  0.0000000000  0.0000000000  0.0000000000
  0.0000000000  0.0000000000  1.0000000000  0.0000000000  0.0000000000  0.0000000000
  0.0000000000  0.0000000000  0.0000000000  1.0000000000  0.0000000000  0.0000000000
  0.0000000000  0.0000000000  0.0000000000  0.0000000000  1.0000000000  0.0000000000
  0.0000000000  0.0000000000  0.0000000000  0.0000000000  0.0000000000  1.0000000000
* f-type functions
    5    5
          3.82900000
          1.79500000
          0.84100000
          0.39400000
          0.15100000
  1.0000000000  0.0000000000  0.0000000000  0.0000000000  0.0000000000
  0.0000000000  1.0000000000  0.0000000000  0.0000000000  0.0000000000
  0.0000000000  0.0000000000  1.0000000000  0.0000000000  0.0000000000
  0.0000000000  0.0000000000  0.0000000000  1.0000000000  0.0000000000
  0.0000000000  0.0000000000  0.0000000000  0.0000000000  1.0000000000
* g-type functions
    4    4
          3.85600000
          1.70200000
          0.75100000
          0.32600000
  1.0000000000  0.0000000000  0.0000000000  0.0000000000
  0.0000000000  1.0000000000  0.0000000000  0.0000000000
  0.0000000000  0.0000000000  1.0000000000  0.0000000000
  0.0000000000  0.0000000000  0.0000000000  1.0000000000
* h-type functions
    3    3
          2.87500000
          1.17000000
          0.58700000
  1.0000000000  0.0000000000  0.0000000000
  0.0000000000  1.0000000000  0.0000000000
  0.0000000000  0.0000000000  1.0000000000
* i-type functions
    2    2
          2.09900000
          1.04100000
  1.0000000000  0.0000000000
  0.0000000000  1.0000000000

/O.aug-cc-pV6Z.van_Mourik.17s11p6d5f4g3h2i.8s7p6d5f4g3h2i.
T. van Mourik, A.K. Wilson, T.H. Dunning, Jr. Mol. Phys. 96 (1999) 529-547. doi:10.1080/00268979909482990
OXYGEN (17s,11p,6d,5f,4g,3h,2i) -> [8s,7p,6d,5f,4g,3h,2i]
     8.0   6
* s-type functions
   17    8
     570800.00000000
      85480.00000000
      19460.00000000
       5512.00000000
       1798.00000000
        648.90000000
        253.10000000
        104.90000000
         45.65000000
         20.62000000
          9.58700000
          4.49300000
          1.83700000
          0.83490000
          0.36580000
          0.15700000
          0.05935000
  0.0000055500 -0.0000012600  0.0000000000  0.0000000000  0.0000000000  0.0000000000  0.0000000000  0.0000000000
  0.0000431100 -0.0000097700  0.0000000000  0.0000000000  0.0000000000  0.0000000000  0.0000000000  0.0000000000
  0.0002266700 -0.0000514800  0.0000000000  0.0000000000  0.0000000000  0.0000000000  0.0000000000  0.0000000000
  0.0009563700 -0.0002169600  0.0000000000  0.0000000000  0.0000000000  0.0000000000  0.0000000000  0.0000000000
  0.0034732000 -0.0007916200  0.0000000000  0.0000000000  0.0000000000  0.0000000000  0.0000000000  0.0000000000
  0.0111977800 -0.0025590000  0.0000000000  0.0000000000  0.0000000000  0.0000000000  0.0000000000  0.0000000000
  0.0323876600 -0.0075331300  0.0000000000  0.0000000000  0.0000000000  0.0000000000  0.0000000000  0.0000000000
  0.0828597700 -0.0197889700  0.0000000000  0.0000000000  0.0000000000  0.0000000000  0.0000000000  0.0000000000
  0.1795838000 -0.0460628800  0.0000000000  0.0000000000  0.0000000000  0.0000000000  0.0000000000  0.0000000000
  0.3052211000 -0.0891956000  0.0000000000  0.0000000000  0.0000000000  0.0000000000  0.0000000000  0.0000000000
  0.3408935000 -0.1375422000  0.0000000000  0.0000000000  0.0000000000  0.0000000000  0.0000000000  0.0000000000
  0.1774261000 -0.1051195000  1.0000000000  0.0000000000  0.0000000000  0.0000000000  0.0000000000  0.0000000000
  0.0204910700  0.1447714000  0.0000000000  1.0000000000  0.0000000000  0.0000000000  0.0000000000  0.0000000000
 -0.0009680700  0.4414634000  0.0000000000  0.0000000000  1.0000000000  0.0000000000  0.0000000000  0.0000000000
  0.0010571500  0.4446814000  0.0000000000  0.0000000000  0.0000000000  1.0000000000  0.0000000000  0.0000000000
 -0.0000972100  0.1282426000  0.0000000000  0.0000000000  0.0000000000  0.0000000000  1.0000000000  0.0000000000
  0.0000000000  0.0000000000  0.0000000000  0.0000000000  0.0000000000  0.0000000000  0.0000000000  1.0000000000
* p-type functions
   11    7
        525.60000000
        124.60000000
         40.34000000
         15.18000000
          6.24500000
          2.73200000
          1.22700000
          0.54920000
          0.24180000
          0.10250000
          0.03380000
  0.0001666400  0.0000000000  0.0000000000  0.0000000000  0.0000000000  0.0000000000  0.0000000000
  0.0014333600  0.0000000000  0.0000000000  0.0000000000  0.0000000000  0.0000000000  0.0000000000
  0.0075476200  0.0000000000  0.0000000000  0.0000000000  0.0000000000  0.0000000000  0.0000000000
  0.0285945600  0.0000000000  0.0000000000  0.0000000000  0.0000000000  0.0000000000  0.0000000000
  0.0843885800  0.0000000000  0.0000000000  0.0000000000  0.0000000000  0.0000000000  0.0000000000
  0.1874834000  1.0000000000  0.0000000000  0.0000000000  0.0000000000  0.0000000000  0.0000000000
  0.2979058000  0.0000000000  1.0000000000  0.0000000000  0.0000000000  0.0000000000  0.0000000000
  0.3385575000  0.0000000000  0.0000000000  1.0000000000  0.0000000000  0.0000000000  0.0000000000
  0.2472609000  0.0000000000  0.0000000000  0.0000000000  1.0000000000  0.0000000000  0.0000000000
  0.0700335000  0.0000000000  0.0000000000  0.0000000000  0.0000000000  1.0000000000  0.0000000000
  0.0000000000  0.0000000000  0.0000000000  0.0000000000  0.0000000000  0.0000000000  1.0000000000
* d-type functions
    6    6
          8.25300000
          3.59700000
          1.56800000
          0.68400000
          0.29800000
          0.11500000
  1.0000000000  0.0000000000  0.0000000000  0.0000000000  0.0000000000  0.0000000000
  0.0000000000  1.0000000000  0.0000000000  0.0000000000  0.0000000000  0.0000000000
  0.0000000000  0.0000000000  1.0000000000  0.0000000000  0.0000000000  0.0000000000
  0.0000000000  0.0000000000  0.0000000000  1.0000000000  0.0000000000  0.0000000000
  0.0000000000  0.0000000000  0.0000000000  0.0000000000  1.0000000000  0.0000000000
  0.0000000000  0.0000000000  0.0000000000  0.0000000000  0.0000000000  1.0000000000
* f-type functions
    5    5
          5.43000000
          2.41600000
          1.07500000
          0.47800000
          0.19500000
  1.0000000000  0.0000000000  0.0000000000  0.0000000000  0.0000000000
  0.0000000000  1.0000000000  0.0000000000  0.0000000000  0.0000000000
  0.0000000000  0.0000000000  1.0000000000  0.0000000000  0.0000000000
  0.0000000000  0.0000000000  0.0000000000  1.0000000000  0.0000000000
  0.0000000000  0.0000000000  0.0000000000  0.0000000000  1.0000000000
* g-type functions
    4    4
          5.21100000
          2.19000000
          0.92000000
          0.40600000
  1.0000000000  0.0000000000  0.0000000000  0.0000000000
  0.0000000000  1.0000000000  0.0000000000  0.0000000000
  0.0000000000  0.0000000000  1.0000000000  0.0000000000
  0.0000000000  0.0000000000  0.0000000000  1.0000000000
* h-type functions
    3    3
          3.87200000
          1.50500000
          0.74800000
  1.0000000000  0.0000000000  0.0000000000
  0.0000000000  1.0000000000  0.0000000000
  0.0000000000  0.0000000000  1.0000000000
* i-type functions
    2    2
          2.77300000
          1.34500000
  1.0000000000  0.0000000000
  0.0000000000  1.0000000000

/F.aug-cc-pV6Z.van_Mourik.17s11p6d5f4g3h2i.8s7p6d5f4g3h2i.
T. van Mourik, A.K. Wilson, T.H. Dunning, Jr. Mol. Phys. 96 (1999) 529-547. doi:10.1080/00268979909482990
FLUORINE (17s,11p,6d,5f,4g,3h,2i) -> [8s,7p,6d,5f,4g,3h,2i]
     9.0   6
* s-type functions
   17    8
     723500.00000000
     108400.00000000
      24680.00000000
       6990.00000000
       2282.00000000
        824.60000000
        321.80000000
        133.50000000
         58.11000000
         26.28000000
         12.24000000
          5.74700000
          2.36500000
          1.07100000
          0.46810000
          0.19940000
          0.07315000
  0.0000055600 -0.0000012900  0.0000000000  0.0000000000  0.0000000000  0.0000000000  0.0000000000  0.0000000000
  0.0000431800 -0.0000099900  0.0000000000  0.0000000000  0.0000000000  0.0000000000  0.0000000000  0.0000000000
  0.0002270000 -0.0000526000  0.0000000000  0.0000000000  0.0000000000  0.0000000000  0.0000000000  0.0000000000
  0.0009580300 -0.0002217200  0.0000000000  0.0000000000  0.0000000000  0.0000000000  0.0000000000  0.0000000000
  0.0034701500 -0.0008069200  0.0000000000  0.0000000000  0.0000000000  0.0000000000  0.0000000000  0.0000000000
  0.0111852600 -0.0026081700  0.0000000000  0.0000000000  0.0000000000  0.0000000000  0.0000000000  0.0000000000
  0.0323288000 -0.0076740200  0.0000000000  0.0000000000  0.0000000000  0.0000000000  0.0000000000  0.0000000000
  0.0827954500 -0.0201935300  0.0000000000  0.0000000000  0.0000000000  0.0000000000  0.0000000000  0.0000000000
  0.1798802000 -0.0471875200  0.0000000000  0.0000000000  0.0000000000  0.0000000000  0.0000000000  0.0000000000
  0.3055783000 -0.0915800900  0.0000000000  0.0000000000  0.0000000000  0.0000000000  0.0000000000  0.0000000000
  0.3402684000 -0.1404856000  0.0000000000  0.0000000000  0.0000000000  0.0000000000  0.0000000000  0.0000000000
  0.1766824000 -0.1036709000  1.0000000000  0.0000000000  0.0000000000  0.0000000000  0.0000000000  0.0000000000
  0.0208547500  0.1528205000  0.0000000000  1.0000000000  0.0000000000  0.0000000000  0.0000000000  0.0000000000
 -0.0007532200  0.4461458000  0.0000000000  0.0000000000  1.0000000000  0.0000000000  0.0000000000  0.0000000000
  0.0010744400  0.4381181000  0.0000000000  0.0000000000  0.0000000000  1.0000000000  0.0000000000  0.0000000000
 -0.0000795100  0.1244705000  0.0000000000  0.0000000000  0.0000000000  0.0000000000  1.0000000000  0.0000000000
  0.0000000000  0.0000000000  0.0000000000  0.0000000000  0.0000000000  0.0000000000  0.0000000000  1.0000000000
* p-type functions
   11    7
        660.00000000
        156.40000000
         50.64000000
         19.08000000
          7.87200000
          3.44900000
          1.54500000
          0.68640000
          0.29860000
          0.12450000
          0.04760000
  0.0001772100  0.0000000000  0.0000000000  0.0000000000  0.0000000000  0.0000000000  0.0000000000
  0.0015269100  0.0000000000  0.0000000000  0.0000000000  0.0000000000  0.0000000000  0.0000000000
  0.0080720700  0.0000000000  0.0000000000  0.0000000000  0.0000000000  0.0000000000  0.0000000000
  0.0307402100  0.0000000000  0.0000000000  0.0000000000  0.0000000000  0.0000000000  0.0000000000
  0.0901191400  0.0000000000  0.0000000000  0.0000000000  0.0000000000  0.0000000000  0.0000000000
  0.1952879000  1.0000000000  0.0000000000  0.0000000000  0.0000000000  0.0000000000  0.0000000000
  0.3010769000  0.0000000000  1.0000000000  0.0000000000  0.0000000000  0.0000000000  0.0000000000
  0.3332207000  0.0000000000  0.0000000000  1.0000000000  0.0000000000  0.0000000000  0.0000000000
  0.2411468000  0.0000000000  0.0000000000  0.0000000000  1.0000000000  0.0000000000  0.0000000000
  0.0696722000  0.0000000000  0.0000000000  0.0000000000  0.0000000000  1.0000000000  0.0000000000
  0.0000000000  0.0000000000  0.0000000000  0.0000000000  0.0000000000  0.0000000000  1.0000000000
* d-type functions
    6    6
         10.57300000
          4.61300000
          2.01300000
          0.87800000
          0.38300000
          0.15100000
  1.0000000000  0.0000000000  0.0000000000  0.0000000000  0.0000000000  0.0000000000
  0.0000000000  1.0000000000  0.0000000000  0.0000000000  0.0000000000  0.0000000000
  0.0000000000  0.0000000000  1.0000000000  0.0000000000  0.0000000000  0.0000000000
  0.0000000000  0.0000000000  0.0000000000  1.0000000000  0.0000000000  0.0000000000
  0.0000000000  0.0000000000  0.0000000000  0.0000000000  1.0000000000  0.0000000000
  0.0000000000  0.0000000000  0.0000000000  0.0000000000  0.0000000000  1.0000000000
* f-type functions
    5    5
          7.56300000
          3.33000000
          1.46600000
          0.64500000
          0.27200000
  1.0000000000  0.0000000000  0.0000000000  0.0000000000  0.0000000000
  0.0000000000  1.0000000000  0.0000000000  0.0000000000  0.0000000000
  0.0000000000  0.0000000000  1.0000000000  0.0000000000  0.0000000000
  0.0000000000  0.0000000000  0.0000000000  1.0000000000  0.0000000000
  0.0000000000  0.0000000000  0.0000000000  0.0000000000  1.0000000000
* g-type functions
    4    4
          6.73500000
          2.78300000
          1.15000000
          0.52000000
  1.0000000000  0.0000000000  0.0000000000  0.0000000000
  0.0000000000  1.0000000000  0.0000000000  0.0000000000
  0.0000000000  0.0000000000  1.0000000000  0.0000000000
  0.0000000000  0.0000000000  0.0000000000  1.0000000000
* h-type functions
    3    3
          5.08800000
          1.93700000
          0.98500000
  1.0000000000  0.0000000000  0.0000000000
  0.0000000000  1.0000000000  0.0000000000
  0.0000000000  0.0000000000  1.0000000000
* i-type functions
    2    2
          3.58100000
          1.73900000
  1.0000000000  0.0000000000
  0.0000000000  1.0000000000

/Ne.aug-cc-pV6Z.van_Mourik.17s11p6d5f4g3h2i.8s7p6d5f4g3h2i.
T. van Mourik, A.K. Wilson, T.H. Dunning, Jr. Mol. Phys. 96 (1999) 529-547. doi:10.1080/00268979909482990
NEON (17s,11p,6d,5f,4g,3h,2i) -> [8s,7p,6d,5f,4g,3h,2i]
    10.0   6
* s-type functions
   17    8
     902400.00000000
     135100.00000000
      30750.00000000
       8710.00000000
       2842.00000000
       1026.00000000
        400.10000000
        165.90000000
         72.21000000
         32.66000000
         15.22000000
          7.14900000
          2.95700000
          1.33500000
          0.58160000
          0.24630000
          0.08690000
  0.0000055100 -0.0000012900  0.0000000000  0.0000000000  0.0000000000  0.0000000000  0.0000000000  0.0000000000
  0.0000428200 -0.0000100500  0.0000000000  0.0000000000  0.0000000000  0.0000000000  0.0000000000  0.0000000000
  0.0002251400 -0.0000529300  0.0000000000  0.0000000000  0.0000000000  0.0000000000  0.0000000000  0.0000000000
  0.0009501600 -0.0002231200  0.0000000000  0.0000000000  0.0000000000  0.0000000000  0.0000000000  0.0000000000
  0.0034471900 -0.0008133800  0.0000000000  0.0000000000  0.0000000000  0.0000000000  0.0000000000  0.0000000000
  0.0111254500 -0.0026323000  0.0000000000  0.0000000000  0.0000000000  0.0000000000  0.0000000000  0.0000000000
  0.0322056800 -0.0077591000  0.0000000000  0.0000000000  0.0000000000  0.0000000000  0.0000000000  0.0000000000
  0.0825989100 -0.0204527700  0.0000000000  0.0000000000  0.0000000000  0.0000000000  0.0000000000  0.0000000000
  0.1799056000 -0.0479750500  0.0000000000  0.0000000000  0.0000000000  0.0000000000  0.0000000000  0.0000000000
  0.3060521000 -0.0934008600  0.0000000000  0.0000000000  0.0000000000  0.0000000000  0.0000000000  0.0000000000
  0.3401256000 -0.1427721000  0.0000000000  0.0000000000  0.0000000000  0.0000000000  0.0000000000  0.0000000000
  0.1761682000 -0.1022908000  1.0000000000  0.0000000000  0.0000000000  0.0000000000  0.0000000000  0.0000000000
  0.0210152700  0.1587858000  0.0000000000  1.0000000000  0.0000000000  0.0000000000  0.0000000000  0.0000000000
 -0.0005074500  0.4494079000  0.0000000000  0.0000000000  1.0000000000  0.0000000000  0.0000000000  0.0000000000
  0.0010578500  0.4334854000  0.0000000000  0.0000000000  0.0000000000  1.0000000000  0.0000000000  0.0000000000
 -0.0000598800  0.1215757000  0.0000000000  0.0000000000  0.0000000000  0.0000000000  1.0000000000  0.0000000000
  0.0000000000  0.0000000000  0.0000000000  0.0000000000  0.0000000000  0.0000000000  0.0000000000  1.0000000000
* p-type functions
   11    7
        815.60000000
        193.30000000
         62.60000000
         23.61000000
          9.76200000
          4.28100000
          1.91500000
          0.84760000
          0.36600000
          0.15100000
          0.05660000
  0.0001837600  0.0000000000  0.0000000000  0.0000000000  0.0000000000  0.0000000000  0.0000000000
  0.0015850900  0.0000000000  0.0000000000  0.0000000000  0.0000000000  0.0000000000  0.0000000000
  0.0084146400  0.0000000000  0.0000000000  0.0000000000  0.0000000000  0.0000000000  0.0000000000
  0.0322003300  0.0000000000  0.0000000000  0.0000000000  0.0000000000  0.0000000000  0.0000000000
  0.0939639000  0.0000000000  0.0000000000  0.0000000000  0.0000000000  0.0000000000  0.0000000000
  0.2004808000  1.0000000000  0.0000000000  0.0000000000  0.0000000000  0.0000000000  0.0000000000
  0.3031137000  0.0000000000  1.0000000000  0.0000000000  0.0000000000  0.0000000000  0.0000000000
  0.3297578000  0.0000000000  0.0000000000  1.0000000000  0.0000000000  0.0000000000  0.0000000000
  0.2366743000  0.0000000000  0.0000000000  0.0000000000  1.0000000000  0.0000000000  0.0000000000
  0.0691168900  0.0000000000  0.0000000000  0.0000000000  0.0000000000  1.0000000000  0.0000000000
  0.0000000000  0.0000000000  0.0000000000  0.0000000000  0.0000000000  0.0000000000  1.0000000000
* d-type functions
    6    6
         13.31700000
          5.80300000
          2.52900000
          1.10200000
          0.48000000
          0.18700000
  1.0000000000  0.0000000000  0.0000000000  0.0000000000  0.0000000000  0.0000000000
  0.0000000000  1.0000000000  0.0000000000  0.0000000000  0.0000000000  0.0000000000
  0.0000000000  0.0000000000  1.0000000000  0.0000000000  0.0000000000  0.0000000000
  0.0000000000  0.0000000000  0.0000000000  1.0000000000  0.0000000000  0.0000000000
  0.0000000000  0.0000000000  0.0000000000  0.0000000000  1.0000000000  0.0000000000
  0.0000000000  0.0000000000  0.0000000000  0.0000000000  0.0000000000  1.0000000000
* f-type functions
    5    5
         10.35600000
          4.53800000
          1.98900000
          0.87100000
          0.34920000
  1.0000000000  0.0000000000  0.0000000000  0.0000000000  0.0000000000
  0.0000000000  1.0000000000  0.0000000000  0.0000000000  0.0000000000
  0.0000000000  0.0000000000  1.0000000000  0.0000000000  0.0000000000
  0.0000000000  0.0000000000  0.0000000000  1.0000000000  0.0000000000
  0.0000000000  0.0000000000  0.0000000000  0.0000000000  1.0000000000
* g-type functions
    4    4
          8.34500000
          3.41700000
          1.39900000
          0.63450000
  1.0000000000  0.0000000000  0.0000000000  0.0000000000
  0.0000000000  1.0000000000  0.0000000000  0.0000000000
  0.0000000000  0.0000000000  1.0000000000  0.0000000000
  0.0000000000  0.0000000000  0.0000000000  1.0000000000
* h-type functions
    3    3
          6.51900000
          2.44700000
          1.20930000
  1.0000000000  0.0000000000  0.0000000000
  0.0000000000  1.0000000000  0.0000000000
  0.0000000000  0.0000000000  1.0000000000
* i-type functions
    2    2
          4.48900000
          2.12150000
  1.0000000000  0.0000000000
  0.0000000000  1.0000000000

/Al.aug-cc-pV6Z.van_Mourik.22s15p6d5f4g3h2i.9s8p6d5f4g3h2i.
T. van Mourik, T.H. Dunning, Jr. Int. J. Quantum Chem. 76 (2000) 205-221. doi:10.1002/(sici)1097-461x(2000)76:2<205::aid-qua10>3.0.co;2-c
ALUMINIUM (22s,15p,6d,5f,4g,3h,2i) -> [9s,8p,6d,5f,4g,3h,2i]
    13.0   6
* s-type functions
   22    9
    3652000.00000000
     546800.00000000
     124500.00000000
      35440.00000000
      11840.00000000
       4434.00000000
       1812.00000000
        791.50000000
        361.00000000
        169.50000000
         81.68000000
         40.28000000
         20.25000000
         10.23000000
          4.80200000
          2.33900000
          1.16300000
          0.58820000
          0.23110000
          0.10270000
          0.04521000
          0.01737000
  0.0000019000 -0.0000005000  0.0000001000  0.0000000000  0.0000000000  0.0000000000  0.0000000000  0.0000000000  0.0000000000
  0.0000145000 -0.0000038000  0.0000009000  0.0000000000  0.0000000000  0.0000000000  0.0000000000  0.0000000000  0.0000000000
  0.0000762000 -0.0000198000  0.0000046000  0.0000000000  0.0000000000  0.0000000000  0.0000000000  0.0000000000  0.0000000000
  0.0003158000 -0.0000821000  0.0000190000  0.0000000000  0.0000000000  0.0000000000  0.0000000000  0.0000000000  0.0000000000
  0.0010974000 -0.0002858000  0.0000659000  0.0000000000  0.0000000000  0.0000000000  0.0000000000  0.0000000000  0.0000000000
  0.0033697000 -0.0008785000  0.0002031000  0.0000000000  0.0000000000  0.0000000000  0.0000000000  0.0000000000  0.0000000000
  0.0093222000 -0.0024482000  0.0005647000  0.0000000000  0.0000000000  0.0000000000  0.0000000000  0.0000000000  0.0000000000
  0.0237992000 -0.0063100000  0.0014620000  0.0000000000  0.0000000000  0.0000000000  0.0000000000  0.0000000000  0.0000000000
  0.0568191000 -0.0154854000  0.0035794000  0.0000000000  0.0000000000  0.0000000000  0.0000000000  0.0000000000  0.0000000000
  0.1224680000 -0.0349589000  0.0081516000  0.0000000000  0.0000000000  0.0000000000  0.0000000000  0.0000000000  0.0000000000
  0.2238970000 -0.0707729000  0.0165276000  0.0000000000  0.0000000000  0.0000000000  0.0000000000  0.0000000000  0.0000000000
  0.3134460000 -0.1194230000  0.0285467000  0.0000000000  0.0000000000  0.0000000000  0.0000000000  0.0000000000  0.0000000000
  0.2749750000 -0.1488420000  0.0361484000  0.0000000000  0.0000000000  0.0000000000  0.0000000000  0.0000000000  0.0000000000
  0.1105640000 -0.0590465000  0.0153804000  0.0000000000  0.0000000000  0.0000000000  0.0000000000  0.0000000000  0.0000000000
  0.0119215000  0.2166930000 -0.0612141000  0.0000000000  0.0000000000  0.0000000000  0.0000000000  0.0000000000  0.0000000000
  0.0006528000  0.4765570000 -0.1512630000  0.0000000000  0.0000000000  0.0000000000  0.0000000000  0.0000000000  0.0000000000
  0.0004735000  0.3755900000 -0.2230120000  1.0000000000  0.0000000000  0.0000000000  0.0000000000  0.0000000000  0.0000000000
 -0.0000270000  0.0866581000 -0.0832864000  0.0000000000  1.0000000000  0.0000000000  0.0000000000  0.0000000000  0.0000000000
  0.0000176000  0.0024337000  0.3868300000  0.0000000000  0.0000000000  1.0000000000  0.0000000000  0.0000000000  0.0000000000
 -0.0000103000 -0.0002391000  0.5904320000  0.0000000000  0.0000000000  0.0000000000  1.0000000000  0.0000000000  0.0000000000
  0.0000019000  0.0001198000  0.2100750000  0.0000000000  0.0000000000  0.0000000000  0.0000000000  1.0000000000  0.0000000000
  0.0000000000  0.0000000000  0.0000000000  0.0000000000  0.0000000000  0.0000000000  0.0000000000  0.0000000000  1.0000000000
* p-type functions
   15    8
       2884.00000000
        683.20000000
        222.00000000
         84.82000000
         35.81000000
         16.22000000
          7.70200000
          3.74100000
          1.83100000
          0.88780000
          0.39890000
          0.17180000
          0.07298000
          0.03069000
          0.01021000
  0.0000638000 -0.0000080000  0.0000000000  0.0000000000  0.0000000000  0.0000000000  0.0000000000  0.0000000000
  0.0005631000 -0.0000651000  0.0000000000  0.0000000000  0.0000000000  0.0000000000  0.0000000000  0.0000000000
  0.0031691000 -0.0003999000  0.0000000000  0.0000000000  0.0000000000  0.0000000000  0.0000000000  0.0000000000
  0.0132401000 -0.0015369000  0.0000000000  0.0000000000  0.0000000000  0.0000000000  0.0000000000  0.0000000000
  0.0433403000 -0.0055644000  0.0000000000  0.0000000000  0.0000000000  0.0000000000  0.0000000000  0.0000000000
  0.1119500000 -0.0131106000  0.0000000000  0.0000000000  0.0000000000  0.0000000000  0.0000000000  0.0000000000
  0.2177960000 -0.0297200000  0.0000000000  0.0000000000  0.0000000000  0.0000000000  0.0000000000  0.0000000000
  0.3116750000 -0.0347195000  0.0000000000  0.0000000000  0.0000000000  0.0000000000  0.0000000000  0.0000000000
  0.3167220000 -0.0551621000  0.0000000000  0.0000000000  0.0000000000  0.0000000000  0.0000000000  0.0000000000
  0.1796130000 -0.0021699000  1.0000000000  0.0000000000  0.0000000000  0.0000000000  0.0000000000  0.0000000000
  0.0315109000  0.0251562000  0.0000000000  1.0000000000  0.0000000000  0.0000000000  0.0000000000  0.0000000000
  0.0000728000  0.3172270000  0.0000000000  0.0000000000  1.0000000000  0.0000000000  0.0000000000  0.0000000000
  0.0006593000  0.0977803000  0.0000000000  0.0000000000  0.0000000000  1.0000000000  0.0000000000  0.0000000000
 -0.0001414000  0.7163440000  0.0000000000  0.0000000000  0.0000000000  0.0000000000  1.0000000000  0.0000000000
  0.0000000000  0.0000000000  0.0000000000  0.0000000000  0.0000000000  0.0000000000  0.0000000000  1.0000000000
* d-type functions
    6    6
          2.21430000
          0.94490000
          0.40320000
          0.17210000
          0.07343000
          0.02666000
  1.0000000000  0.0000000000  0.0000000000  0.0000000000  0.0000000000  0.0000000000
  0.0000000000  1.0000000000  0.0000000000  0.0000000000  0.0000000000  0.0000000000
  0.0000000000  0.0000000000  1.0000000000  0.0000000000  0.0000000000  0.0000000000
  0.0000000000  0.0000000000  0.0000000000  1.0000000000  0.0000000000  0.0000000000
  0.0000000000  0.0000000000  0.0000000000  0.0000000000  1.0000000000  0.0000000000
  0.0000000000  0.0000000000  0.0000000000  0.0000000000  0.0000000000  1.0000000000
* f-type functions
    5    5
          0.87560000
          0.44720000
          0.22840000
          0.11670000
          0.04625000
  1.0000000000  0.0000000000  0.0000000000  0.0000000000  0.0000000000
  0.0000000000  1.0000000000  0.0000000000  0.0000000000  0.0000000000
  0.0000000000  0.0000000000  1.0000000000  0.0000000000  0.0000000000
  0.0000000000  0.0000000000  0.0000000000  1.0000000000  0.0000000000
  0.0000000000  0.0000000000  0.0000000000  0.0000000000  1.0000000000
* g-type functions
    4    4
          0.69520000
          0.37710000
          0.20460000
          0.08545000
  1.0000000000  0.0000000000  0.0000000000  0.0000000000
  0.0000000000  1.0000000000  0.0000000000  0.0000000000
  0.0000000000  0.0000000000  1.0000000000  0.0000000000
  0.0000000000  0.0000000000  0.0000000000  1.0000000000
* h-type functions
    3    3
          0.65600000
          0.33000000
          0.16550000
  1.0000000000  0.0000000000  0.0000000000
  0.0000000000  1.0000000000  0.0000000000
  0.0000000000  0.0000000000  1.0000000000
* i-type functions
    2    2
          0.53020000
          0.29900000
  1.0000000000  0.0000000000
  0.0000000000  1.0000000000

/Si.aug-cc-pV6Z.van_Mourik.22s15p6d5f4g3h2i.9s8p6d5f4g3h2i.
T. van Mourik, T.H. Dunning, Jr. Int. J. Quantum Chem. 76 (2000) 205-221. doi:10.1002/(sici)1097-461x(2000)76:2<205::aid-qua10>3.0.co;2-c
SILICON (22s,15p,6d,5f,4g,3h,2i) -> [9s,8p,6d,5f,4g,3h,2i]
    14.0   6
* s-type functions
   22    9
    4465000.00000000
     668500.00000000
     152200.00000000
      43300.00000000
      14410.00000000
       5394.00000000
       2212.00000000
        968.10000000
        441.20000000
        207.10000000
         99.80000000
         49.24000000
         24.74000000
         12.47000000
          5.79500000
          2.83000000
          1.40700000
          0.69950000
          0.30830000
          0.13850000
          0.06145000
          0.02539000
  0.0000017000 -0.0000005000  0.0000001000  0.0000000000  0.0000000000  0.0000000000  0.0000000000  0.0000000000  0.0000000000
  0.0000136000 -0.0000036000  0.0000009000  0.0000000000  0.0000000000  0.0000000000  0.0000000000  0.0000000000  0.0000000000
  0.0000714000 -0.0000190000  0.0000049000  0.0000000000  0.0000000000  0.0000000000  0.0000000000  0.0000000000  0.0000000000
  0.0002973000 -0.0000791000  0.0000203000  0.0000000000  0.0000000000  0.0000000000  0.0000000000  0.0000000000  0.0000000000
  0.0010383000 -0.0002769000  0.0000709000  0.0000000000  0.0000000000  0.0000000000  0.0000000000  0.0000000000  0.0000000000
  0.0031747000 -0.0008472000  0.0002172000  0.0000000000  0.0000000000  0.0000000000  0.0000000000  0.0000000000  0.0000000000
  0.0087324000 -0.0023478000  0.0006013000  0.0000000000  0.0000000000  0.0000000000  0.0000000000  0.0000000000  0.0000000000
  0.0223830000 -0.0060705000  0.0015591000  0.0000000000  0.0000000000  0.0000000000  0.0000000000  0.0000000000  0.0000000000
  0.0537273000 -0.0149711000  0.0038443000  0.0000000000  0.0000000000  0.0000000000  0.0000000000  0.0000000000  0.0000000000
  0.1166490000 -0.0339729000  0.0087797000  0.0000000000  0.0000000000  0.0000000000  0.0000000000  0.0000000000  0.0000000000
  0.2159780000 -0.0694584000  0.0180388000  0.0000000000  0.0000000000  0.0000000000  0.0000000000  0.0000000000  0.0000000000
  0.3095660000 -0.1190010000  0.0315224000  0.0000000000  0.0000000000  0.0000000000  0.0000000000  0.0000000000  0.0000000000
  0.2839450000 -0.1536450000  0.0416905000  0.0000000000  0.0000000000  0.0000000000  0.0000000000  0.0000000000  0.0000000000
  0.1222320000 -0.0704684000  0.0200973000  0.0000000000  0.0000000000  0.0000000000  0.0000000000  0.0000000000  0.0000000000
  0.0141952000  0.2131490000 -0.0667484000  0.0000000000  0.0000000000  0.0000000000  0.0000000000  0.0000000000  0.0000000000
  0.0003121000  0.4915960000 -0.1819060000  0.0000000000  0.0000000000  0.0000000000  0.0000000000  0.0000000000  0.0000000000
  0.0006190000  0.3783100000 -0.2602950000  1.0000000000  0.0000000000  0.0000000000  0.0000000000  0.0000000000  0.0000000000
 -0.0001275000  0.0757524000 -0.0544200000  0.0000000000  1.0000000000  0.0000000000  0.0000000000  0.0000000000  0.0000000000
  0.0000506000  0.0015840000  0.4298450000  0.0000000000  0.0000000000  1.0000000000  0.0000000000  0.0000000000  0.0000000000
 -0.0000279000  0.0003435000  0.5787630000  0.0000000000  0.0000000000  0.0000000000  1.0000000000  0.0000000000  0.0000000000
  0.0000054000  0.0000593000  0.1897350000  0.0000000000  0.0000000000  0.0000000000  0.0000000000  1.0000000000  0.0000000000
  0.0000000000  0.0000000000  0.0000000000  0.0000000000  0.0000000000  0.0000000000  0.0000000000  0.0000000000  1.0000000000
* p-type functions
   15    8
       3572.00000000
        846.00000000
        274.80000000
        105.00000000
         44.35000000
         20.08000000
          9.53000000
          4.63400000
          2.28000000
          1.11600000
          0.49910000
          0.22540000
          0.10010000
          0.04332000
          0.01694000
  0.0000599000 -0.0000128000  0.0000000000  0.0000000000  0.0000000000  0.0000000000  0.0000000000  0.0000000000
  0.0005296000 -0.0001126000  0.0000000000  0.0000000000  0.0000000000  0.0000000000  0.0000000000  0.0000000000
  0.0029958000 -0.0006402000  0.0000000000  0.0000000000  0.0000000000  0.0000000000  0.0000000000  0.0000000000
  0.0126335000 -0.0027029000  0.0000000000  0.0000000000  0.0000000000  0.0000000000  0.0000000000  0.0000000000
  0.0419044000 -0.0090789000  0.0000000000  0.0000000000  0.0000000000  0.0000000000  0.0000000000  0.0000000000
  0.1102590000 -0.0242348000  0.0000000000  0.0000000000  0.0000000000  0.0000000000  0.0000000000  0.0000000000
  0.2188310000 -0.0493460000  0.0000000000  0.0000000000  0.0000000000  0.0000000000  0.0000000000  0.0000000000
  0.3178280000 -0.0725859000  0.0000000000  0.0000000000  0.0000000000  0.0000000000  0.0000000000  0.0000000000
  0.3194250000 -0.0804258000  0.0000000000  0.0000000000  0.0000000000  0.0000000000  0.0000000000  0.0000000000
  0.1706340000 -0.0276076000  1.0000000000  0.0000000000  0.0000000000  0.0000000000  0.0000000000  0.0000000000
  0.0268342000  0.1701480000  0.0000000000  1.0000000000  0.0000000000  0.0000000000  0.0000000000  0.0000000000
 -0.0003020000  0.4111580000  0.0000000000  0.0000000000  1.0000000000  0.0000000000  0.0000000000  0.0000000000
  0.0007932000  0.4250700000  0.0000000000  0.0000000000  0.0000000000  1.0000000000  0.0000000000  0.0000000000
 -0.0001187000  0.1447890000  0.0000000000  0.0000000000  0.0000000000  0.0000000000  1.0000000000  0.0000000000
  0.0000000000  0.0000000000  0.0000000000  0.0000000000  0.0000000000  0.0000000000  0.0000000000  1.0000000000
* d-type functions
    6    6
          3.23860000
          1.37670000
          0.58530000
          0.24880000
          0.10580000
          0.04139000
  1.0000000000  0.0000000000  0.0000000000  0.0000000000  0.0000000000  0.0000000000
  0.0000000000  1.0000000000  0.0000000000  0.0000000000  0.0000000000  0.0000000000
  0.0000000000  0.0000000000  1.0000000000  0.0000000000  0.0000000000  0.0000000000
  0.0000000000  0.0000000000  0.0000000000  1.0000000000  0.0000000000  0.0000000000
  0.0000000000  0.0000000000  0.0000000000  0.0000000000  1.0000000000  0.0000000000
  0.0000000000  0.0000000000  0.0000000000  0.0000000000  0.0000000000  1.0000000000
* f-type functions
    5    5
          1.35100000
          0.66000000
          0.32250000
          0.15750000
          0.06884000
  1.0000000000  0.0000000000  0.0000000000  0.0000000000  0.0000000000
  0.0000000000  1.0000000000  0.0000000000  0.0000000000  0.0000000000
  0.0000000000  0.0000000000  1.0000000000  0.0000000000  0.0000000000
  0.0000000000  0.0000000000  0.0000000000  1.0000000000  0.0000000000
  0.0000000000  0.0000000000  0.0000000000  0.0000000000  1.0000000000
* g-type functions
    4    4
          0.85280000
          0.46310000
          0.25150000
          0.11640000
  1.0000000000  0.0000000000  0.0000000000  0.0000000000
  0.0000000000  1.0000000000  0.0000000000  0.0000000000
  0.0000000000  0.0000000000  1.0000000000  0.0000000000
  0.0000000000  0.0000000000  0.0000000000  1.0000000000
* h-type functions
    3    3
          0.85570000
          0.42310000
          0.23510000
  1.0000000000  0.0000000000  0.0000000000
  0.0000000000  1.0000000000  0.0000000000
  0.0000000000  0.0000000000  1.0000000000
* i-type functions
    2    2
          0.69460000
          0.42710000
  1.0000000000  0.0000000000
  0.0000000000  1.0000000000

/P.aug-cc-pV6Z.van_Mourik.22s15p6d5f4g3h2i.9s8p6d5f4g3h2i.
T. van Mourik, T.H. Dunning, Jr. Int. J. Quantum Chem. 76 (2000) 205-221. doi:10.1002/(sici)1097-461x(2000)76:2<205::aid-qua10>3.0.co;2-c
PHOSPHORUS (22s,15p,6d,5f,4g,3h,2i) -> [9s,8p,6d,5f,4g,3h,2i]
    15.0   6
* s-type functions
   22    9
    5384000.00000000
     806200.00000000
     183600.00000000
      52250.00000000
      17390.00000000
       6523.00000000
       2687.00000000
       1178.00000000
        536.20000000
        251.50000000
        121.30000000
         59.88000000
         30.05000000
         15.12000000
          7.01000000
          3.44100000
          1.71200000
          0.83370000
          0.39120000
          0.17770000
          0.07939000
          0.03228000
  0.0000016000 -0.0000004000  0.0000001000  0.0000000000  0.0000000000  0.0000000000  0.0000000000  0.0000000000  0.0000000000
  0.0000128000 -0.0000035000  0.0000010000  0.0000000000  0.0000000000  0.0000000000  0.0000000000  0.0000000000  0.0000000000
  0.0000672000 -0.0000183000  0.0000050000  0.0000000000  0.0000000000  0.0000000000  0.0000000000  0.0000000000  0.0000000000
  0.0002797000 -0.0000759000  0.0000209000  0.0000000000  0.0000000000  0.0000000000  0.0000000000  0.0000000000  0.0000000000
  0.0009767000 -0.0002657000  0.0000730000  0.0000000000  0.0000000000  0.0000000000  0.0000000000  0.0000000000  0.0000000000
  0.0029684000 -0.0008080000  0.0002221000  0.0000000000  0.0000000000  0.0000000000  0.0000000000  0.0000000000  0.0000000000
  0.0081240000 -0.0022273000  0.0006122000  0.0000000000  0.0000000000  0.0000000000  0.0000000000  0.0000000000  0.0000000000
  0.0209200000 -0.0057833000  0.0015918000  0.0000000000  0.0000000000  0.0000000000  0.0000000000  0.0000000000  0.0000000000
  0.0505590000 -0.0143438000  0.0039534000  0.0000000000  0.0000000000  0.0000000000  0.0000000000  0.0000000000  0.0000000000
  0.1104790000 -0.0327061000  0.0090572000  0.0000000000  0.0000000000  0.0000000000  0.0000000000  0.0000000000  0.0000000000
  0.2069570000 -0.0673716000  0.0187909000  0.0000000000  0.0000000000  0.0000000000  0.0000000000  0.0000000000  0.0000000000
  0.3047370000 -0.1176470000  0.0333831000  0.0000000000  0.0000000000  0.0000000000  0.0000000000  0.0000000000  0.0000000000
  0.2929520000 -0.1572800000  0.0459484000  0.0000000000  0.0000000000  0.0000000000  0.0000000000  0.0000000000  0.0000000000
  0.1355610000 -0.0838544000  0.0255240000  0.0000000000  0.0000000000  0.0000000000  0.0000000000  0.0000000000  0.0000000000
  0.0173208000  0.1997180000 -0.0669496000  0.0000000000  0.0000000000  0.0000000000  0.0000000000  0.0000000000  0.0000000000
 -0.0000352000  0.4986050000 -0.2036450000  0.0000000000  0.0000000000  0.0000000000  0.0000000000  0.0000000000  0.0000000000
  0.0008033000  0.3898150000 -0.2872280000  1.0000000000  0.0000000000  0.0000000000  0.0000000000  0.0000000000  0.0000000000
 -0.0002438000  0.0743410000 -0.0338211000  0.0000000000  1.0000000000  0.0000000000  0.0000000000  0.0000000000  0.0000000000
  0.0000987000  0.0007380000  0.4544820000  0.0000000000  0.0000000000  1.0000000000  0.0000000000  0.0000000000  0.0000000000
 -0.0000512000  0.0009276000  0.5687910000  0.0000000000  0.0000000000  0.0000000000  1.0000000000  0.0000000000  0.0000000000
  0.0000101000 -0.0000017000  0.1785900000  0.0000000000  0.0000000000  0.0000000000  0.0000000000  1.0000000000  0.0000000000
  0.0000000000  0.0000000000  0.0000000000  0.0000000000  0.0000000000  0.0000000000  0.0000000000  0.0000000000  1.0000000000
* p-type functions
   15    8
       4552.00000000
       1078.00000000
        350.10000000
        133.80000000
         56.52000000
         25.58000000
         12.14000000
          5.90200000
          2.91000000
          1.43500000
          0.65700000
          0.30050000
          0.13400000
          0.05783000
          0.02197000
  0.0000520000 -0.0000124000  0.0000000000  0.0000000000  0.0000000000  0.0000000000  0.0000000000  0.0000000000
  0.0004604000 -0.0001094000  0.0000000000  0.0000000000  0.0000000000  0.0000000000  0.0000000000  0.0000000000
  0.0026208000 -0.0006256000  0.0000000000  0.0000000000  0.0000000000  0.0000000000  0.0000000000  0.0000000000
  0.0111873000 -0.0026734000  0.0000000000  0.0000000000  0.0000000000  0.0000000000  0.0000000000  0.0000000000
  0.0378229000 -0.0091552000  0.0000000000  0.0000000000  0.0000000000  0.0000000000  0.0000000000  0.0000000000
  0.1021160000 -0.0250993000  0.0000000000  0.0000000000  0.0000000000  0.0000000000  0.0000000000  0.0000000000
  0.2103140000 -0.0531810000  0.0000000000  0.0000000000  0.0000000000  0.0000000000  0.0000000000  0.0000000000
  0.3173830000 -0.0815888000  0.0000000000  0.0000000000  0.0000000000  0.0000000000  0.0000000000  0.0000000000
  0.3271650000 -0.0919725000  0.0000000000  0.0000000000  0.0000000000  0.0000000000  0.0000000000  0.0000000000
  0.1776870000 -0.0292668000  1.0000000000  0.0000000000  0.0000000000  0.0000000000  0.0000000000  0.0000000000
  0.0293580000  0.1879960000  0.0000000000  1.0000000000  0.0000000000  0.0000000000  0.0000000000  0.0000000000
 -0.0000768000  0.4271910000  0.0000000000  0.0000000000  1.0000000000  0.0000000000  0.0000000000  0.0000000000
  0.0006720000  0.4101460000  0.0000000000  0.0000000000  0.0000000000  1.0000000000  0.0000000000  0.0000000000
 -0.0001168000  0.1264650000  0.0000000000  0.0000000000  0.0000000000  0.0000000000  1.0000000000  0.0000000000
  0.0000000000  0.0000000000  0.0000000000  0.0000000000  0.0000000000  0.0000000000  0.0000000000  1.0000000000
* d-type functions
    6    6
          4.30080000
          1.83460000
          0.78260000
          0.33390000
          0.14240000
          0.05492000
  1.0000000000  0.0000000000  0.0000000000  0.0000000000  0.0000000000  0.0000000000
  0.0000000000  1.0000000000  0.0000000000  0.0000000000  0.0000000000  0.0000000000
  0.0000000000  0.0000000000  1.0000000000  0.0000000000  0.0000000000  0.0000000000
  0.0000000000  0.0000000000  0.0000000000  1.0000000000  0.0000000000  0.0000000000
  0.0000000000  0.0000000000  0.0000000000  0.0000000000  1.0000000000  0.0000000000
  0.0000000000  0.0000000000  0.0000000000  0.0000000000  0.0000000000  1.0000000000
* f-type functions
    5    5
          1.81600000
          0.88060000
          0.42700000
          0.20700000
          0.08710000
  1.0000000000  0.0000000000  0.0000000000  0.0000000000  0.0000000000
  0.0000000000  1.0000000000  0.0000000000  0.0000000000  0.0000000000
  0.0000000000  0.0000000000  1.0000000000  0.0000000000  0.0000000000
  0.0000000000  0.0000000000  0.0000000000  1.0000000000  0.0000000000
  0.0000000000  0.0000000000  0.0000000000  0.0000000000  1.0000000000
* g-type functions
    4    4
          1.06160000
          0.57910000
          0.31590000
          0.14700000
  1.0000000000  0.0000000000  0.0000000000  0.0000000000
  0.0000000000  1.0000000000  0.0000000000  0.0000000000
  0.0000000000  0.0000000000  1.0000000000  0.0000000000
  0.0000000000  0.0000000000  0.0000000000  1.0000000000
* h-type functions
    3    3
          1.08500000
          0.52770000
          0.28740000
  1.0000000000  0.0000000000  0.0000000000
  0.0000000000  1.0000000000  0.0000000000
  0.0000000000  0.0000000000  1.0000000000
* i-type functions
    2    2
          0.88900000
          0.51510000
  1.0000000000  0.0000000000
  0.0000000000  1.0000000000

/S.aug-cc-pV6Z.van_Mourik.22s15p6d5f4g3h2i.9s8p6d5f4g3h2i.
T. van Mourik, T.H. Dunning, Jr. Int. J. Quantum Chem. 76 (2000) 205-221. doi:10.1002/(sici)1097-461x(2000)76:2<205::aid-qua10>3.0.co;2-c
SULFUR (22s,15p,6d,5f,4g,3h,2i) -> [9s,8p,6d,5f,4g,3h,2i]
    16.0   6
* s-type functions
   22    9
    6297000.00000000
     943100.00000000
     214900.00000000
      61250.00000000
      20450.00000000
       7719.00000000
       3198.00000000
       1402.00000000
        637.20000000
        298.90000000
        144.30000000
         71.21000000
         35.73000000
         17.97000000
          8.34100000
          4.11200000
          2.04500000
          0.97700000
          0.47660000
          0.21850000
          0.09759000
          0.03893000
  0.0000016000 -0.0000004000  0.0000001000  0.0000000000  0.0000000000  0.0000000000  0.0000000000  0.0000000000  0.0000000000
  0.0000124000 -0.0000034000  0.0000010000  0.0000000000  0.0000000000  0.0000000000  0.0000000000  0.0000000000  0.0000000000
  0.0000649000 -0.0000179000  0.0000052000  0.0000000000  0.0000000000  0.0000000000  0.0000000000  0.0000000000  0.0000000000
  0.0002693000 -0.0000744000  0.0000216000  0.0000000000  0.0000000000  0.0000000000  0.0000000000  0.0000000000  0.0000000000
  0.0009347000 -0.0002587000  0.0000751000  0.0000000000  0.0000000000  0.0000000000  0.0000000000  0.0000000000  0.0000000000
  0.0028083000 -0.0007777000  0.0002258000  0.0000000000  0.0000000000  0.0000000000  0.0000000000  0.0000000000  0.0000000000
  0.0076740000 -0.0021396000  0.0006217000  0.0000000000  0.0000000000  0.0000000000  0.0000000000  0.0000000000  0.0000000000
  0.0198898000 -0.0055906000  0.0016251000  0.0000000000  0.0000000000  0.0000000000  0.0000000000  0.0000000000  0.0000000000
  0.0482589000 -0.0139076000  0.0040535000  0.0000000000  0.0000000000  0.0000000000  0.0000000000  0.0000000000  0.0000000000
  0.1057570000 -0.0317689000  0.0092902000  0.0000000000  0.0000000000  0.0000000000  0.0000000000  0.0000000000  0.0000000000
  0.2002230000 -0.0659302000  0.0194561000  0.0000000000  0.0000000000  0.0000000000  0.0000000000  0.0000000000  0.0000000000
  0.3007280000 -0.1168320000  0.0350040000  0.0000000000  0.0000000000  0.0000000000  0.0000000000  0.0000000000  0.0000000000
  0.2986880000 -0.1597870000  0.0494897000  0.0000000000  0.0000000000  0.0000000000  0.0000000000  0.0000000000  0.0000000000
  0.1463470000 -0.0945322000  0.0303443000  0.0000000000  0.0000000000  0.0000000000  0.0000000000  0.0000000000  0.0000000000
  0.0201159000  0.1878280000 -0.0663661000  0.0000000000  0.0000000000  0.0000000000  0.0000000000  0.0000000000  0.0000000000
 -0.0002488000  0.5046830000 -0.2231540000  0.0000000000  0.0000000000  0.0000000000  0.0000000000  0.0000000000  0.0000000000
  0.0009009000  0.3995450000 -0.3096090000  1.0000000000  0.0000000000  0.0000000000  0.0000000000  0.0000000000  0.0000000000
 -0.0003178000  0.0734117000 -0.0112192000  0.0000000000  1.0000000000  0.0000000000  0.0000000000  0.0000000000  0.0000000000
  0.0001309000 -0.0001062000  0.4810330000  0.0000000000  0.0000000000  1.0000000000  0.0000000000  0.0000000000  0.0000000000
 -0.0000667000  0.0014068000  0.5554780000  0.0000000000  0.0000000000  0.0000000000  1.0000000000  0.0000000000  0.0000000000
  0.0000125000 -0.0000288000  0.1635420000  0.0000000000  0.0000000000  0.0000000000  0.0000000000  1.0000000000  0.0000000000
  0.0000000000  0.0000000000  0.0000000000  0.0000000000  0.0000000000  0.0000000000  0.0000000000  0.0000000000  1.0000000000
* p-type functions
   15    8
       5266.00000000
       1247.00000000
        405.00000000
        154.80000000
         65.38000000
         29.59000000
         14.04000000
          6.82400000
          3.36900000
          1.66600000
          0.76810000
          0.35040000
          0.15560000
          0.06681000
          0.02648000
  0.0000523000 -0.0000133000  0.0000000000  0.0000000000  0.0000000000  0.0000000000  0.0000000000  0.0000000000
  0.0004635000 -0.0001179000  0.0000000000  0.0000000000  0.0000000000  0.0000000000  0.0000000000  0.0000000000
  0.0026410000 -0.0006759000  0.0000000000  0.0000000000  0.0000000000  0.0000000000  0.0000000000  0.0000000000
  0.0113169000 -0.0028973000  0.0000000000  0.0000000000  0.0000000000  0.0000000000  0.0000000000  0.0000000000
  0.0384704000 -0.0099980000  0.0000000000  0.0000000000  0.0000000000  0.0000000000  0.0000000000  0.0000000000
  0.1043390000 -0.0275416000  0.0000000000  0.0000000000  0.0000000000  0.0000000000  0.0000000000  0.0000000000
  0.2156840000 -0.0587943000  0.0000000000  0.0000000000  0.0000000000  0.0000000000  0.0000000000  0.0000000000
  0.3252600000 -0.0903761000  0.0000000000  0.0000000000  0.0000000000  0.0000000000  0.0000000000  0.0000000000
  0.3261780000 -0.0999891000  0.0000000000  0.0000000000  0.0000000000  0.0000000000  0.0000000000  0.0000000000
  0.1631460000 -0.0109798000  1.0000000000  0.0000000000  0.0000000000  0.0000000000  0.0000000000  0.0000000000
  0.0238982000  0.2327320000  0.0000000000  1.0000000000  0.0000000000  0.0000000000  0.0000000000  0.0000000000
  0.0004738000  0.4312490000  0.0000000000  0.0000000000  1.0000000000  0.0000000000  0.0000000000  0.0000000000
  0.0007352000  0.3751860000  0.0000000000  0.0000000000  0.0000000000  1.0000000000  0.0000000000  0.0000000000
  0.0000224000  0.1137290000  0.0000000000  0.0000000000  0.0000000000  0.0000000000  1.0000000000  0.0000000000
  0.0000000000  0.0000000000  0.0000000000  0.0000000000  0.0000000000  0.0000000000  0.0000000000  1.0000000000
* d-type functions
    6    6
          5.07550000
          2.18330000
          0.93920000
          0.40400000
          0.17380000
          0.06986000
  1.0000000000  0.0000000000  0.0000000000  0.0000000000  0.0000000000  0.0000000000
  0.0000000000  1.0000000000  0.0000000000  0.0000000000  0.0000000000  0.0000000000
  0.0000000000  0.0000000000  1.0000000000  0.0000000000  0.0000000000  0.0000000000
  0.0000000000  0.0000000000  0.0000000000  1.0000000000  0.0000000000  0.0000000000
  0.0000000000  0.0000000000  0.0000000000  0.0000000000  1.0000000000  0.0000000000
  0.0000000000  0.0000000000  0.0000000000  0.0000000000  0.0000000000  1.0000000000
* f-type functions
    5    5
          2.21200000
          1.06300000
          0.51000000
          0.24500000
          0.11000000
  1.0000000000  0.0000000000  0.0000000000  0.0000000000  0.0000000000
  0.0000000000  1.0000000000  0.0000000000  0.0000000000  0.0000000000
  0.0000000000  0.0000000000  1.0000000000  0.0000000000  0.0000000000
  0.0000000000  0.0000000000  0.0000000000  1.0000000000  0.0000000000
  0.0000000000  0.0000000000  0.0000000000  0.0000000000  1.0000000000
* g-type functions
    4    4
          1.34730000
          0.70090000
          0.36470000
          0.17990000
  1.0000000000  0.0000000000  0.0000000000  0.0000000000
  0.0000000000  1.0000000000  0.0000000000  0.0000000000
  0.0000000000  0.0000000000  1.0000000000  0.0000000000
  0.0000000000  0.0000000000  0.0000000000  1.0000000000
* h-type functions
    3    3
          1.28610000
          0.61150000
          0.34650000
  1.0000000000  0.0000000000  0.0000000000
  0.0000000000  1.0000000000  0.0000000000
  0.0000000000  0.0000000000  1.0000000000
* i-type functions
    2    2
          1.04090000
          0.62220000
  1.0000000000  0.0000000000
  0.0000000000  1.0000000000

/Cl.aug-cc-pV6Z.van_Mourik.22s15p6d5f4g3h2i.9s8p6d5f4g3h2i.
T. van Mourik, T.H. Dunning, Jr. Int. J. Quantum Chem. 76 (2000) 205-221. doi:10.1002/(sici)1097-461x(2000)76:2<205::aid-qua10>3.0.co;2-c
CHLORINE (22s,15p,6d,5f,4g,3h,2i) -> [9s,8p,6d,5f,4g,3h,2i]
    17.0   6
* s-type functions
   22    9
    7733000.00000000
    1158000.00000000
     263700.00000000
      75010.00000000
      24890.00000000
       9318.00000000
       3840.00000000
       1684.00000000
        766.30000000
        359.50000000
        173.40000000
         85.61000000
         42.93000000
         21.55000000
         10.05000000
          4.97800000
          2.47800000
          1.18000000
          0.58280000
          0.26680000
          0.11830000
          0.04625000
  1.4347400e-6 -4.0222700e-7  1.2169600e-7  0.0000000000  0.0000000000  0.0000000000  0.0000000000  0.0000000000  0.0000000000
  0.0000111486 -3.1244800e-6  9.4514100e-7  0.0000000000  0.0000000000  0.0000000000  0.0000000000  0.0000000000  0.0000000000
  0.0000585865 -0.0000164290  4.9711900e-6  0.0000000000  0.0000000000  0.0000000000  0.0000000000  0.0000000000  0.0000000000
  0.0002445180 -0.0000685421  0.0000207323  0.0000000000  0.0000000000  0.0000000000  0.0000000000  0.0000000000  0.0000000000
  0.0008582870 -0.0002410010  0.0000729402  0.0000000000  0.0000000000  0.0000000000  0.0000000000  0.0000000000  0.0000000000
  0.0026101900 -0.0007335380  0.0002218990  0.0000000000  0.0000000000  0.0000000000  0.0000000000  0.0000000000  0.0000000000
  0.0071378400 -0.0020183000  0.0006113550  0.0000000000  0.0000000000  0.0000000000  0.0000000000  0.0000000000  0.0000000000
  0.0184564000 -0.0052610700  0.0015933700  0.0000000000  0.0000000000  0.0000000000  0.0000000000  0.0000000000  0.0000000000
  0.0448944000 -0.0130986000  0.0039800100  0.0000000000  0.0000000000  0.0000000000  0.0000000000  0.0000000000  0.0000000000
  0.0993822000 -0.0301794000  0.0091937500  0.0000000000  0.0000000000  0.0000000000  0.0000000000  0.0000000000  0.0000000000
  0.1907820000 -0.0631888000  0.0194399000  0.0000000000  0.0000000000  0.0000000000  0.0000000000  0.0000000000  0.0000000000
  0.2935650000 -0.1138590000  0.0355187000  0.0000000000  0.0000000000  0.0000000000  0.0000000000  0.0000000000  0.0000000000
  0.3064770000 -0.1612510000  0.0520674000  0.0000000000  0.0000000000  0.0000000000  0.0000000000  0.0000000000  0.0000000000
  0.1622090000 -0.1092340000  0.0365644000  0.0000000000  0.0000000000  0.0000000000  0.0000000000  0.0000000000  0.0000000000
  0.0249383000  0.1629990000 -0.0597500000  0.0000000000  0.0000000000  0.0000000000  0.0000000000  0.0000000000  0.0000000000
 -0.0005131420  0.5014130000 -0.2316410000  0.0000000000  0.0000000000  0.0000000000  0.0000000000  0.0000000000  0.0000000000
  0.0011024100  0.4206070000 -0.3298460000  1.0000000000  0.0000000000  0.0000000000  0.0000000000  0.0000000000  0.0000000000
 -0.0004316530  0.0819293000 -0.0124320000  0.0000000000  1.0000000000  0.0000000000  0.0000000000  0.0000000000  0.0000000000
  0.0001786810 -0.0000329722  0.4918290000  0.0000000000  0.0000000000  1.0000000000  0.0000000000  0.0000000000  0.0000000000
 -0.0000889525  0.0017902300  0.5569730000  0.0000000000  0.0000000000  0.0000000000  1.0000000000  0.0000000000  0.0000000000
  0.0000166152 -0.0000382863  0.1584970000  0.0000000000  0.0000000000  0.0000000000  0.0000000000  1.0000000000  0.0000000000
  0.0000000000  0.0000000000  0.0000000000  0.0000000000  0.0000000000  0.0000000000  0.0000000000  0.0000000000  1.0000000000
* p-type functions
   15    8
       6091.00000000
       1442.00000000
        468.30000000
        179.00000000
         75.61000000
         34.22000000
         16.23000000
          7.89000000
          3.89800000
          1.93300000
          0.90570000
          0.41400000
          0.18360000
          0.07859000
          0.03163000
  0.0000516194 -0.0000139259  0.0000000000  0.0000000000  0.0000000000  0.0000000000  0.0000000000  0.0000000000
  0.0004584680 -0.0001233240  0.0000000000  0.0000000000  0.0000000000  0.0000000000  0.0000000000  0.0000000000
  0.0026150900 -0.0007075510  0.0000000000  0.0000000000  0.0000000000  0.0000000000  0.0000000000  0.0000000000
  0.0112554000 -0.0030493900  0.0000000000  0.0000000000  0.0000000000  0.0000000000  0.0000000000  0.0000000000
  0.0384577000 -0.0105752000  0.0000000000  0.0000000000  0.0000000000  0.0000000000  0.0000000000  0.0000000000
  0.1050810000 -0.0294094000  0.0000000000  0.0000000000  0.0000000000  0.0000000000  0.0000000000  0.0000000000
  0.2186030000 -0.0632296000  0.0000000000  0.0000000000  0.0000000000  0.0000000000  0.0000000000  0.0000000000
  0.3308740000 -0.0981870000  0.0000000000  0.0000000000  0.0000000000  0.0000000000  0.0000000000  0.0000000000
  0.3258790000 -0.1058700000  0.0000000000  0.0000000000  0.0000000000  0.0000000000  0.0000000000  0.0000000000
  0.1531590000  0.0032288700  1.0000000000  0.0000000000  0.0000000000  0.0000000000  0.0000000000  0.0000000000
  0.0210910000  0.2583060000  0.0000000000  1.0000000000  0.0000000000  0.0000000000  0.0000000000  0.0000000000
  0.0010679500  0.4333260000  0.0000000000  0.0000000000  1.0000000000  0.0000000000  0.0000000000  0.0000000000
  0.0008231280  0.3545080000  0.0000000000  0.0000000000  0.0000000000  1.0000000000  0.0000000000  0.0000000000
  0.0001262440  0.1031890000  0.0000000000  0.0000000000  0.0000000000  0.0000000000  1.0000000000  0.0000000000
  0.0000000000  0.0000000000  0.0000000000  0.0000000000  0.0000000000  0.0000000000  0.0000000000  1.0000000000
* d-type functions
    6    6
          6.24280000
          2.69060000
          1.15960000
          0.49980000
          0.21540000
          0.08885000
  1.0000000000  0.0000000000  0.0000000000  0.0000000000  0.0000000000  0.0000000000
  0.0000000000  1.0000000000  0.0000000000  0.0000000000  0.0000000000  0.0000000000
  0.0000000000  0.0000000000  1.0000000000  0.0000000000  0.0000000000  0.0000000000
  0.0000000000  0.0000000000  0.0000000000  1.0000000000  0.0000000000  0.0000000000
  0.0000000000  0.0000000000  0.0000000000  0.0000000000  1.0000000000  0.0000000000
  0.0000000000  0.0000000000  0.0000000000  0.0000000000  0.0000000000  1.0000000000
* f-type functions
    5    5
          2.53270000
          1.24060000
          0.60770000
          0.29770000
          0.14650000
  1.0000000000  0.0000000000  0.0000000000  0.0000000000  0.0000000000
  0.0000000000  1.0000000000  0.0000000000  0.0000000000  0.0000000000
  0.0000000000  0.0000000000  1.0000000000  0.0000000000  0.0000000000
  0.0000000000  0.0000000000  0.0000000000  1.0000000000  0.0000000000
  0.0000000000  0.0000000000  0.0000000000  0.0000000000  1.0000000000
* g-type functions
    4    4
          1.53880000
          0.80500000
          0.42120000
          0.21770000
  1.0000000000  0.0000000000  0.0000000000  0.0000000000
  0.0000000000  1.0000000000  0.0000000000  0.0000000000
  0.0000000000  0.0000000000  1.0000000000  0.0000000000
  0.0000000000  0.0000000000  0.0000000000  1.0000000000
* h-type functions
    3    3
          1.56130000
          0.73970000
          0.43650000
  1.0000000000  0.0000000000  0.0000000000
  0.0000000000  1.0000000000  0.0000000000
  0.0000000000  0.0000000000  1.0000000000
* i-type functions
    2    2
          1.25720000
          0.80740000
  1.0000000000  0.0000000000
  0.0000000000  1.0000000000

/Ar.aug-cc-pV6Z.van_Mourik.22s15p6d5f4g3h2i.9s8p6d5f4g3h2i.
T. van Mourik, T.H. Dunning, Jr. Int. J. Quantum Chem. 76 (2000) 205-221. doi:10.1002/(sici)1097-461x(2000)76:2<205::aid-qua10>3.0.co;2-c
ARGON (22s,15p,6d,5f,4g,3h,2i) -> [9s,8p,6d,5f,4g,3h,2i]
    18.0   6
* s-type functions
   22    9
    9149000.00000000
    1370000.00000000
     311900.00000000
      88650.00000000
      29330.00000000
      10930.00000000
       4480.00000000
       1962.00000000
        894.10000000
        419.60000000
        202.30000000
         99.84000000
         50.07000000
         25.14000000
         11.81000000
          5.88200000
          2.93900000
          1.40500000
          0.69630000
          0.31880000
          0.14100000
          0.05357000
  0.0000013000 -0.0000004000  0.0000001000  0.0000000000  0.0000000000  0.0000000000  0.0000000000  0.0000000000  0.0000000000
  0.0000104000 -0.0000030000  0.0000009000  0.0000000000  0.0000000000  0.0000000000  0.0000000000  0.0000000000  0.0000000000
  0.0000549000 -0.0000156000  0.0000049000  0.0000000000  0.0000000000  0.0000000000  0.0000000000  0.0000000000  0.0000000000
  0.0002296000 -0.0000652000  0.0000204000  0.0000000000  0.0000000000  0.0000000000  0.0000000000  0.0000000000  0.0000000000
  0.0008103000 -0.0002304000  0.0000720000  0.0000000000  0.0000000000  0.0000000000  0.0000000000  0.0000000000  0.0000000000
  0.0024853000 -0.0007075000  0.0002210000  0.0000000000  0.0000000000  0.0000000000  0.0000000000  0.0000000000  0.0000000000
  0.0068369000 -0.0019573000  0.0006125000  0.0000000000  0.0000000000  0.0000000000  0.0000000000  0.0000000000  0.0000000000
  0.0176199000 -0.0050856000  0.0015908000  0.0000000000  0.0000000000  0.0000000000  0.0000000000  0.0000000000  0.0000000000
  0.0428752000 -0.0126528000  0.0039722000  0.0000000000  0.0000000000  0.0000000000  0.0000000000  0.0000000000  0.0000000000
  0.0954853000 -0.0293065000  0.0092204000  0.0000000000  0.0000000000  0.0000000000  0.0000000000  0.0000000000  0.0000000000
  0.1850640000 -0.0617712000  0.0196367000  0.0000000000  0.0000000000  0.0000000000  0.0000000000  0.0000000000  0.0000000000
  0.2890420000 -0.1125410000  0.0362570000  0.0000000000  0.0000000000  0.0000000000  0.0000000000  0.0000000000  0.0000000000
  0.3101660000 -0.1622930000  0.0541725000  0.0000000000  0.0000000000  0.0000000000  0.0000000000  0.0000000000  0.0000000000
  0.1721830000 -0.1184120000  0.0409996000  0.0000000000  0.0000000000  0.0000000000  0.0000000000  0.0000000000  0.0000000000
  0.0285227000  0.1461480000 -0.0551744000  0.0000000000  0.0000000000  0.0000000000  0.0000000000  0.0000000000  0.0000000000
 -0.0005757000  0.4977520000 -0.2387540000  0.0000000000  0.0000000000  0.0000000000  0.0000000000  0.0000000000  0.0000000000
  0.0011812000  0.4342400000 -0.3452640000  1.0000000000  0.0000000000  0.0000000000  0.0000000000  0.0000000000  0.0000000000
 -0.0004805000  0.0890745000 -0.0122384000  0.0000000000  1.0000000000  0.0000000000  0.0000000000  0.0000000000  0.0000000000
  0.0001888000  0.0005381000  0.4997370000  0.0000000000  0.0000000000  1.0000000000  0.0000000000  0.0000000000  0.0000000000
 -0.0000973000  0.0020404000  0.5568890000  0.0000000000  0.0000000000  0.0000000000  1.0000000000  0.0000000000  0.0000000000
  0.0000174000 -0.0000280000  0.1555420000  0.0000000000  0.0000000000  0.0000000000  0.0000000000  1.0000000000  0.0000000000
  0.0000000000  0.0000000000  0.0000000000  0.0000000000  0.0000000000  0.0000000000  0.0000000000  0.0000000000  1.0000000000
* p-type functions
   15    8
       7050.00000000
       1669.00000000
        542.10000000
        207.10000000
         87.52000000
         39.61000000
         18.78000000
          9.13000000
          4.51600000
          2.24500000
          1.06500000
          0.48850000
          0.21660000
          0.09255000
          0.03678000
  0.0000502000 -0.0000140000  0.0000000000  0.0000000000  0.0000000000  0.0000000000  0.0000000000  0.0000000000
  0.0004454000 -0.0001243000  0.0000000000  0.0000000000  0.0000000000  0.0000000000  0.0000000000  0.0000000000
  0.0025480000 -0.0007147000  0.0000000000  0.0000000000  0.0000000000  0.0000000000  0.0000000000  0.0000000000
  0.0110155000 -0.0030968000  0.0000000000  0.0000000000  0.0000000000  0.0000000000  0.0000000000  0.0000000000
  0.0378490000 -0.0107961000  0.0000000000  0.0000000000  0.0000000000  0.0000000000  0.0000000000  0.0000000000
  0.1043550000 -0.0303536000  0.0000000000  0.0000000000  0.0000000000  0.0000000000  0.0000000000  0.0000000000
  0.2193350000 -0.0659785000  0.0000000000  0.0000000000  0.0000000000  0.0000000000  0.0000000000  0.0000000000
  0.3346150000 -0.1038770000  0.0000000000  0.0000000000  0.0000000000  0.0000000000  0.0000000000  0.0000000000
  0.3267710000 -0.1099560000  0.0000000000  0.0000000000  0.0000000000  0.0000000000  0.0000000000  0.0000000000
  0.1481530000  0.0133248000  1.0000000000  0.0000000000  0.0000000000  0.0000000000  0.0000000000  0.0000000000
  0.0192586000  0.2742860000  0.0000000000  1.0000000000  0.0000000000  0.0000000000  0.0000000000  0.0000000000
  0.0005519000  0.4349360000  0.0000000000  0.0000000000  1.0000000000  0.0000000000  0.0000000000  0.0000000000
  0.0001769000  0.3409770000  0.0000000000  0.0000000000  0.0000000000  1.0000000000  0.0000000000  0.0000000000
 -0.0000169000  0.0950684000  0.0000000000  0.0000000000  0.0000000000  0.0000000000  1.0000000000  0.0000000000
  0.0000000000  0.0000000000  0.0000000000  0.0000000000  0.0000000000  0.0000000000  0.0000000000  1.0000000000
* d-type functions
    6    6
          7.63270000
          3.28760000
          1.41600000
          0.60990000
          0.26270000
          0.10780000
  1.0000000000  0.0000000000  0.0000000000  0.0000000000  0.0000000000  0.0000000000
  0.0000000000  1.0000000000  0.0000000000  0.0000000000  0.0000000000  0.0000000000
  0.0000000000  0.0000000000  1.0000000000  0.0000000000  0.0000000000  0.0000000000
  0.0000000000  0.0000000000  0.0000000000  1.0000000000  0.0000000000  0.0000000000
  0.0000000000  0.0000000000  0.0000000000  0.0000000000  1.0000000000  0.0000000000
  0.0000000000  0.0000000000  0.0000000000  0.0000000000  0.0000000000  1.0000000000
* f-type functions
    5    5
          3.05820000
          1.52920000
          0.76470000
          0.38240000
          0.18300000
  1.0000000000  0.0000000000  0.0000000000  0.0000000000  0.0000000000
  0.0000000000  1.0000000000  0.0000000000  0.0000000000  0.0000000000
  0.0000000000  0.0000000000  1.0000000000  0.0000000000  0.0000000000
  0.0000000000  0.0000000000  0.0000000000  1.0000000000  0.0000000000
  0.0000000000  0.0000000000  0.0000000000  0.0000000000  1.0000000000
* g-type functions
    4    4
          1.84500000
          0.96570000
          0.50550000
          0.25550000
  1.0000000000  0.0000000000  0.0000000000  0.0000000000
  0.0000000000  1.0000000000  0.0000000000  0.0000000000
  0.0000000000  0.0000000000  1.0000000000  0.0000000000
  0.0000000000  0.0000000000  0.0000000000  1.0000000000
* h-type functions
    3    3
          1.87430000
          0.88710000
          0.52650000
  1.0000000000  0.0000000000  0.0000000000
  0.0000000000  1.0000000000  0.0000000000
  0.0000000000  0.0000000000  1.0000000000
* i-type functions
    2    2
          1.50660000
          0.99260000
  1.0000000000  0.0000000000
  0.0000000000  1.0000000000
