************************************************************************
* This file is part of OpenMolcas.                                     *
*                                                                      *
* OpenMolcas is free software; you can redistribute it and/or modify   *
* it under the terms of the GNU Lesser General Public License, v. 2.1. *
* OpenMolcas is distributed in the hope that it will be useful, but it *
* is provided "as is" and without any express or implied warranties.   *
* For more details see the full text of the license in the file        *
* LICENSE or in <http://www.gnu.org/licenses/>.                        *
************************************************************************

#Hamiltonian NRH
#Nucleus UNK
#Contraction CCC
#AllElectron AE_

************************************************************************
* This file has been generated from Basis Set Exchange data:           *
*   https://www.basissetexchange.org                                   *
* Version: 1  (Data from ccRepo/Grant Hill)                            *
************************************************************************

/H.aug-cc-pVTZ.Kendall.6s3p2d.4s3p2d.
R.A. Kendall, T.H. Dunning, R.J. Harrison. J. Chem. Phys. 96 (1992) 6796-6806. doi:10.1063/1.462569
HYDROGEN (6s,3p,2d) -> [4s,3p,2d]
     1.0   2
* s-type functions
    6    4
         33.87000000
          5.09500000
          1.15900000
          0.32580000
          0.10270000
          0.02526000
  0.0060680000  0.0000000000  0.0000000000  0.0000000000
  0.0453080000  0.0000000000  0.0000000000  0.0000000000
  0.2028220000  0.0000000000  0.0000000000  0.0000000000
  0.5039030000  1.0000000000  0.0000000000  0.0000000000
  0.3834210000  0.0000000000  1.0000000000  0.0000000000
  0.0000000000  0.0000000000  0.0000000000  1.0000000000
* p-type functions
    3    3
          1.40700000
          0.38800000
          0.10200000
  1.0000000000  0.0000000000  0.0000000000
  0.0000000000  1.0000000000  0.0000000000
  0.0000000000  0.0000000000  1.0000000000
* d-type functions
    2    2
          1.05700000
          0.24700000
  1.0000000000  0.0000000000
  0.0000000000  1.0000000000

/He.aug-cc-pVTZ.Woon.7s3p2d.4s3p2d.
D.E. Woon, T.H. Dunning. J. Chem. Phys. 100 (1994) 2975-2988. doi:10.1063/1.466439
HELIUM (7s,3p,2d) -> [4s,3p,2d]
     2.0   2
* s-type functions
    7    4
        234.00000000
         35.16000000
          7.98900000
          2.21200000
          0.66690000
          0.20890000
          0.05138000
  0.0025870000  0.0000000000  0.0000000000  0.0000000000
  0.0195330000  0.0000000000  0.0000000000  0.0000000000
  0.0909980000  0.0000000000  0.0000000000  0.0000000000
  0.2720500000  0.0000000000  0.0000000000  0.0000000000
  0.4780650000  1.0000000000  0.0000000000  0.0000000000
  0.3077370000  0.0000000000  1.0000000000  0.0000000000
  0.0000000000  0.0000000000  0.0000000000  1.0000000000
* p-type functions
    3    3
          3.04400000
          0.75800000
          0.19930000
  1.0000000000  0.0000000000  0.0000000000
  0.0000000000  1.0000000000  0.0000000000
  0.0000000000  0.0000000000  1.0000000000
* d-type functions
    2    2
          1.96500000
          0.45920000
  1.0000000000  0.0000000000
  0.0000000000  1.0000000000

/Li.aug-cc-pVTZ.Prascher.12s6p3d2f.5s4p3d2f.
B.P. Prascher, D.E. Woon, K.A. Peterson, T.H. Dunning, A.K. Wilson. Theor. Chem. Acc. 128 (2011) 69-82. doi:10.1007/s00214-010-0764-0
LITHIUM (12s,6p,3d,2f) -> [5s,4p,3d,2f]
     3.0   3
* s-type functions
   12    5
       5988.00000000
        898.90000000
        205.90000000
         59.24000000
         19.87000000
          7.40600000
          2.93000000
          1.18900000
          0.47980000
          0.07509000
          0.02832000
          0.00760000
  0.0001330000 -0.0000210000  0.0000000000  0.0000000000  0.0000000000
  0.0010250000 -0.0001610000  0.0000000000  0.0000000000  0.0000000000
  0.0052720000 -0.0008200000  0.0000000000  0.0000000000  0.0000000000
  0.0209290000 -0.0033260000  0.0000000000  0.0000000000  0.0000000000
  0.0663400000 -0.0105190000  0.0000000000  0.0000000000  0.0000000000
  0.1657750000 -0.0280970000  0.0000000000  0.0000000000  0.0000000000
  0.3150380000 -0.0559360000  0.0000000000  0.0000000000  0.0000000000
  0.3935230000 -0.0992370000  0.0000000000  0.0000000000  0.0000000000
  0.1908700000 -0.1121890000  0.0000000000  0.0000000000  0.0000000000
  0.0054140000  0.5678890000  1.0000000000  0.0000000000  0.0000000000
 -0.0013280000  0.5303820000  0.0000000000  1.0000000000  0.0000000000
  0.0000000000  0.0000000000  0.0000000000  0.0000000000  1.0000000000
* p-type functions
    6    4
          3.26600000
          0.65110000
          0.16960000
          0.05578000
          0.02050000
          0.00910000
  0.0086300000  0.0000000000  0.0000000000  0.0000000000
  0.0475380000  0.0000000000  0.0000000000  0.0000000000
  0.2097720000  0.0000000000  0.0000000000  0.0000000000
  0.5285220000  1.0000000000  0.0000000000  0.0000000000
  0.3827440000  0.0000000000  1.0000000000  0.0000000000
  0.0000000000  0.0000000000  0.0000000000  1.0000000000
* d-type functions
    3    3
          0.19000000
          0.07250000
          0.04280000
  1.0000000000  0.0000000000  0.0000000000
  0.0000000000  1.0000000000  0.0000000000
  0.0000000000  0.0000000000  1.0000000000
* f-type functions
    2    2
          0.12700000
          0.08120000
  1.0000000000  0.0000000000
  0.0000000000  1.0000000000

/Be.aug-cc-pVTZ.Prascher.12s6p3d2f.5s4p3d2f.
B.P. Prascher, D.E. Woon, K.A. Peterson, T.H. Dunning, A.K. Wilson. Theor. Chem. Acc. 128 (2011) 69-82. doi:10.1007/s00214-010-0764-0
BERYLLIUM (12s,6p,3d,2f) -> [5s,4p,3d,2f]
     4.0   3
* s-type functions
   12    5
       6863.00000000
       1030.00000000
        234.70000000
         66.56000000
         21.69000000
          7.73400000
          2.91600000
          1.13000000
          0.25770000
          0.11010000
          0.04409000
          0.01470000
  0.0002360000 -0.0000430000  0.0000000000  0.0000000000  0.0000000000
  0.0018260000 -0.0003330000  0.0000000000  0.0000000000  0.0000000000
  0.0094520000 -0.0017360000  0.0000000000  0.0000000000  0.0000000000
  0.0379570000 -0.0070120000  0.0000000000  0.0000000000  0.0000000000
  0.1199650000 -0.0231260000  0.0000000000  0.0000000000  0.0000000000
  0.2821620000 -0.0581380000  0.0000000000  0.0000000000  0.0000000000
  0.4274040000 -0.1145560000  0.0000000000  0.0000000000  0.0000000000
  0.2662780000 -0.1359080000  0.0000000000  0.0000000000  0.0000000000
  0.0181930000  0.2280260000  1.0000000000  0.0000000000  0.0000000000
 -0.0072750000  0.5774410000  0.0000000000  0.0000000000  0.0000000000
  0.0019030000  0.3178730000  0.0000000000  1.0000000000  0.0000000000
  0.0000000000  0.0000000000  0.0000000000  0.0000000000  1.0000000000
* p-type functions
    6    4
          7.43600000
          1.57700000
          0.43520000
          0.14380000
          0.04994000
          0.00930000
  0.0107360000  0.0000000000  0.0000000000  0.0000000000
  0.0628540000  0.0000000000  0.0000000000  0.0000000000
  0.2481800000  0.0000000000  0.0000000000  0.0000000000
  0.5236990000  1.0000000000  0.0000000000  0.0000000000
  0.3534250000  0.0000000000  1.0000000000  0.0000000000
  0.0000000000  0.0000000000  0.0000000000  1.0000000000
* d-type functions
    3    3
          0.34930000
          0.17240000
          0.05880000
  1.0000000000  0.0000000000  0.0000000000
  0.0000000000  1.0000000000  0.0000000000
  0.0000000000  0.0000000000  1.0000000000
* f-type functions
    2    2
          0.34230000
          0.11880000
  1.0000000000  0.0000000000
  0.0000000000  1.0000000000

/B.aug-cc-pVTZ.Kendall.11s6p3d2f.5s4p3d2f.
R.A. Kendall, T.H. Dunning, R.J. Harrison. J. Chem. Phys. 96 (1992) 6796-6806. doi:10.1063/1.462569
BORON (11s,6p,3d,2f) -> [5s,4p,3d,2f]
     5.0   3
* s-type functions
   11    5
       5473.00000000
        820.90000000
        186.80000000
         52.83000000
         17.08000000
          5.99900000
          2.20800000
          0.58790000
          0.24150000
          0.08610000
          0.02914000
  0.0005550000 -0.0001120000  0.0000000000  0.0000000000  0.0000000000
  0.0042910000 -0.0008680000  0.0000000000  0.0000000000  0.0000000000
  0.0219490000 -0.0044840000  0.0000000000  0.0000000000  0.0000000000
  0.0844410000 -0.0176830000  0.0000000000  0.0000000000  0.0000000000
  0.2385570000 -0.0536390000  0.0000000000  0.0000000000  0.0000000000
  0.4350720000 -0.1190050000  0.0000000000  0.0000000000  0.0000000000
  0.3419550000 -0.1658240000  0.0000000000  0.0000000000  0.0000000000
  0.0368560000  0.1201070000  1.0000000000  0.0000000000  0.0000000000
 -0.0095450000  0.5959810000  0.0000000000  0.0000000000  0.0000000000
  0.0023680000  0.4110210000  0.0000000000  1.0000000000  0.0000000000
  0.0000000000  0.0000000000  0.0000000000  0.0000000000  1.0000000000
* p-type functions
    6    4
         12.05000000
          2.61300000
          0.74750000
          0.23850000
          0.07698000
          0.02096000
  0.0131180000  0.0000000000  0.0000000000  0.0000000000
  0.0798960000  0.0000000000  0.0000000000  0.0000000000
  0.2772750000  0.0000000000  0.0000000000  0.0000000000
  0.5042700000  1.0000000000  0.0000000000  0.0000000000
  0.3536800000  0.0000000000  1.0000000000  0.0000000000
  0.0000000000  0.0000000000  0.0000000000  1.0000000000
* d-type functions
    3    3
          0.66100000
          0.19900000
          0.06040000
  1.0000000000  0.0000000000  0.0000000000
  0.0000000000  1.0000000000  0.0000000000
  0.0000000000  0.0000000000  1.0000000000
* f-type functions
    2    2
          0.49000000
          0.16300000
  1.0000000000  0.0000000000
  0.0000000000  1.0000000000

/C.aug-cc-pVTZ.Kendall.11s6p3d2f.5s4p3d2f.
R.A. Kendall, T.H. Dunning, R.J. Harrison. J. Chem. Phys. 96 (1992) 6796-6806. doi:10.1063/1.462569
CARBON (11s,6p,3d,2f) -> [5s,4p,3d,2f]
     6.0   3
* s-type functions
   11    5
       8236.00000000
       1235.00000000
        280.80000000
         79.27000000
         25.59000000
          8.99700000
          3.31900000
          0.90590000
          0.36430000
          0.12850000
          0.04402000
  0.0005310000 -0.0001130000  0.0000000000  0.0000000000  0.0000000000
  0.0041080000 -0.0008780000  0.0000000000  0.0000000000  0.0000000000
  0.0210870000 -0.0045400000  0.0000000000  0.0000000000  0.0000000000
  0.0818530000 -0.0181330000  0.0000000000  0.0000000000  0.0000000000
  0.2348170000 -0.0557600000  0.0000000000  0.0000000000  0.0000000000
  0.4344010000 -0.1268950000  0.0000000000  0.0000000000  0.0000000000
  0.3461290000 -0.1703520000  0.0000000000  0.0000000000  0.0000000000
  0.0393780000  0.1403820000  1.0000000000  0.0000000000  0.0000000000
 -0.0089830000  0.5986840000  0.0000000000  0.0000000000  0.0000000000
  0.0023850000  0.3953890000  0.0000000000  1.0000000000  0.0000000000
  0.0000000000  0.0000000000  0.0000000000  0.0000000000  1.0000000000
* p-type functions
    6    4
         18.71000000
          4.13300000
          1.20000000
          0.38270000
          0.12090000
          0.03569000
  0.0140310000  0.0000000000  0.0000000000  0.0000000000
  0.0868660000  0.0000000000  0.0000000000  0.0000000000
  0.2902160000  0.0000000000  0.0000000000  0.0000000000
  0.5010080000  1.0000000000  0.0000000000  0.0000000000
  0.3434060000  0.0000000000  1.0000000000  0.0000000000
  0.0000000000  0.0000000000  0.0000000000  1.0000000000
* d-type functions
    3    3
          1.09700000
          0.31800000
          0.10000000
  1.0000000000  0.0000000000  0.0000000000
  0.0000000000  1.0000000000  0.0000000000
  0.0000000000  0.0000000000  1.0000000000
* f-type functions
    2    2
          0.76100000
          0.26800000
  1.0000000000  0.0000000000
  0.0000000000  1.0000000000

/N.aug-cc-pVTZ.Kendall.11s6p3d2f.5s4p3d2f.
R.A. Kendall, T.H. Dunning, R.J. Harrison. J. Chem. Phys. 96 (1992) 6796-6806. doi:10.1063/1.462569
NITROGEN (11s,6p,3d,2f) -> [5s,4p,3d,2f]
     7.0   3
* s-type functions
   11    5
      11420.00000000
       1712.00000000
        389.30000000
        110.00000000
         35.57000000
         12.54000000
          4.64400000
          1.29300000
          0.51180000
          0.17870000
          0.05760000
  0.0005230000 -0.0001150000  0.0000000000  0.0000000000  0.0000000000
  0.0040450000 -0.0008950000  0.0000000000  0.0000000000  0.0000000000
  0.0207750000 -0.0046240000  0.0000000000  0.0000000000  0.0000000000
  0.0807270000 -0.0185280000  0.0000000000  0.0000000000  0.0000000000
  0.2330740000 -0.0573390000  0.0000000000  0.0000000000  0.0000000000
  0.4335010000 -0.1320760000  0.0000000000  0.0000000000  0.0000000000
  0.3474720000 -0.1725100000  0.0000000000  0.0000000000  0.0000000000
  0.0412620000  0.1518140000  1.0000000000  0.0000000000  0.0000000000
 -0.0085080000  0.5999440000  0.0000000000  0.0000000000  0.0000000000
  0.0023840000  0.3874620000  0.0000000000  1.0000000000  0.0000000000
  0.0000000000  0.0000000000  0.0000000000  0.0000000000  1.0000000000
* p-type functions
    6    4
         26.63000000
          5.94800000
          1.74200000
          0.55500000
          0.17250000
          0.04910000
  0.0146700000  0.0000000000  0.0000000000  0.0000000000
  0.0917640000  0.0000000000  0.0000000000  0.0000000000
  0.2986830000  0.0000000000  0.0000000000  0.0000000000
  0.4984870000  1.0000000000  0.0000000000  0.0000000000
  0.3370230000  0.0000000000  1.0000000000  0.0000000000
  0.0000000000  0.0000000000  0.0000000000  1.0000000000
* d-type functions
    3    3
          1.65400000
          0.46900000
          0.15100000
  1.0000000000  0.0000000000  0.0000000000
  0.0000000000  1.0000000000  0.0000000000
  0.0000000000  0.0000000000  1.0000000000
* f-type functions
    2    2
          1.09300000
          0.36400000
  1.0000000000  0.0000000000
  0.0000000000  1.0000000000

/O.aug-cc-pVTZ.Kendall.11s6p3d2f.5s4p3d2f.
R.A. Kendall, T.H. Dunning, R.J. Harrison. J. Chem. Phys. 96 (1992) 6796-6806. doi:10.1063/1.462569
OXYGEN (11s,6p,3d,2f) -> [5s,4p,3d,2f]
     8.0   3
* s-type functions
   11    5
      15330.00000000
       2299.00000000
        522.40000000
        147.30000000
         47.55000000
         16.76000000
          6.20700000
          1.75200000
          0.68820000
          0.23840000
          0.07376000
  0.0005080000 -0.0001150000  0.0000000000  0.0000000000  0.0000000000
  0.0039290000 -0.0008950000  0.0000000000  0.0000000000  0.0000000000
  0.0202430000 -0.0046360000  0.0000000000  0.0000000000  0.0000000000
  0.0791810000 -0.0187240000  0.0000000000  0.0000000000  0.0000000000
  0.2306870000 -0.0584630000  0.0000000000  0.0000000000  0.0000000000
  0.4331180000 -0.1364630000  0.0000000000  0.0000000000  0.0000000000
  0.3502600000 -0.1757400000  0.0000000000  0.0000000000  0.0000000000
  0.0427280000  0.1609340000  1.0000000000  0.0000000000  0.0000000000
 -0.0081540000  0.6034180000  0.0000000000  0.0000000000  0.0000000000
  0.0023810000  0.3787650000  0.0000000000  1.0000000000  0.0000000000
  0.0000000000  0.0000000000  0.0000000000  0.0000000000  1.0000000000
* p-type functions
    6    4
         34.46000000
          7.74900000
          2.28000000
          0.71560000
          0.21400000
          0.05974000
  0.0159280000  0.0000000000  0.0000000000  0.0000000000
  0.0997400000  0.0000000000  0.0000000000  0.0000000000
  0.3104920000  0.0000000000  0.0000000000  0.0000000000
  0.4910260000  1.0000000000  0.0000000000  0.0000000000
  0.3363370000  0.0000000000  1.0000000000  0.0000000000
  0.0000000000  0.0000000000  0.0000000000  1.0000000000
* d-type functions
    3    3
          2.31400000
          0.64500000
          0.21400000
  1.0000000000  0.0000000000  0.0000000000
  0.0000000000  1.0000000000  0.0000000000
  0.0000000000  0.0000000000  1.0000000000
* f-type functions
    2    2
          1.42800000
          0.50000000
  1.0000000000  0.0000000000
  0.0000000000  1.0000000000

/F.aug-cc-pVTZ.Kendall.11s6p3d2f.5s4p3d2f.
R.A. Kendall, T.H. Dunning, R.J. Harrison. J. Chem. Phys. 96 (1992) 6796-6806. doi:10.1063/1.462569
FLUORINE (11s,6p,3d,2f) -> [5s,4p,3d,2f]
     9.0   3
* s-type functions
   11    5
      19500.00000000
       2923.00000000
        664.50000000
        187.50000000
         60.62000000
         21.42000000
          7.95000000
          2.25700000
          0.88150000
          0.30410000
          0.09158000
  0.0005070000 -0.0001170000  0.0000000000  0.0000000000  0.0000000000
  0.0039230000 -0.0009120000  0.0000000000  0.0000000000  0.0000000000
  0.0202000000 -0.0047170000  0.0000000000  0.0000000000  0.0000000000
  0.0790100000 -0.0190860000  0.0000000000  0.0000000000  0.0000000000
  0.2304390000 -0.0596550000  0.0000000000  0.0000000000  0.0000000000
  0.4328720000 -0.1400100000  0.0000000000  0.0000000000  0.0000000000
  0.3499640000 -0.1767820000  0.0000000000  0.0000000000  0.0000000000
  0.0432330000  0.1716250000  1.0000000000  0.0000000000  0.0000000000
 -0.0078920000  0.6050430000  0.0000000000  0.0000000000  0.0000000000
  0.0023840000  0.3695120000  0.0000000000  1.0000000000  0.0000000000
  0.0000000000  0.0000000000  0.0000000000  0.0000000000  1.0000000000
* p-type functions
    6    4
         43.88000000
          9.92600000
          2.93000000
          0.91320000
          0.26720000
          0.07361000
  0.0166650000  0.0000000000  0.0000000000  0.0000000000
  0.1044720000  0.0000000000  0.0000000000  0.0000000000
  0.3172600000  0.0000000000  0.0000000000  0.0000000000
  0.4873430000  1.0000000000  0.0000000000  0.0000000000
  0.3346040000  0.0000000000  1.0000000000  0.0000000000
  0.0000000000  0.0000000000  0.0000000000  1.0000000000
* d-type functions
    3    3
          3.10700000
          0.85500000
          0.29200000
  1.0000000000  0.0000000000  0.0000000000
  0.0000000000  1.0000000000  0.0000000000
  0.0000000000  0.0000000000  1.0000000000
* f-type functions
    2    2
          1.91700000
          0.72400000
  1.0000000000  0.0000000000
  0.0000000000  1.0000000000

/Ne.aug-cc-pVTZ.Kendall.11s6p3d2f.5s4p3d2f.
R.A. Kendall, T.H. Dunning, R.J. Harrison. J. Chem. Phys. 96 (1992) 6796-6806. doi:10.1063/1.462569
NEON (11s,6p,3d,2f) -> [5s,4p,3d,2f]
    10.0   3
* s-type functions
   11    5
      24350.00000000
       3650.00000000
        829.60000000
        234.00000000
         75.61000000
         26.73000000
          9.92700000
          2.83600000
          1.10200000
          0.37820000
          0.11330000
  0.0005020000 -0.0001180000  0.0000000000  0.0000000000  0.0000000000
  0.0038810000 -0.0009150000  0.0000000000  0.0000000000  0.0000000000
  0.0199970000 -0.0047370000  0.0000000000  0.0000000000  0.0000000000
  0.0784180000 -0.0192330000  0.0000000000  0.0000000000  0.0000000000
  0.2296760000 -0.0603690000  0.0000000000  0.0000000000  0.0000000000
  0.4327220000 -0.1425080000  0.0000000000  0.0000000000  0.0000000000
  0.3506420000 -0.1777100000  0.0000000000  0.0000000000  0.0000000000
  0.0439110000  0.1773520000  1.0000000000  0.0000000000  0.0000000000
 -0.0076450000  0.6058360000  0.0000000000  0.0000000000  0.0000000000
  0.0023750000  0.3651090000  0.0000000000  1.0000000000  0.0000000000
  0.0000000000  0.0000000000  0.0000000000  0.0000000000  1.0000000000
* p-type functions
    6    4
         54.70000000
         12.43000000
          3.67900000
          1.14300000
          0.33000000
          0.09175000
  0.0171510000  0.0000000000  0.0000000000  0.0000000000
  0.1076560000  0.0000000000  0.0000000000  0.0000000000
  0.3216810000  0.0000000000  0.0000000000  0.0000000000
  0.4852320000  1.0000000000  0.0000000000  0.0000000000
  0.3325840000  0.0000000000  1.0000000000  0.0000000000
  0.0000000000  0.0000000000  0.0000000000  1.0000000000
* d-type functions
    3    3
          4.01400000
          1.09600000
          0.38600000
  1.0000000000  0.0000000000  0.0000000000
  0.0000000000  1.0000000000  0.0000000000
  0.0000000000  0.0000000000  1.0000000000
* f-type functions
    2    2
          2.54400000
          1.08400000
  1.0000000000  0.0000000000
  0.0000000000  1.0000000000

/Na.aug-cc-pVTZ.Prascher.17s11p3d2f.6s5p3d2f.
B.P. Prascher, D.E. Woon, K.A. Peterson, T.H. Dunning, A.K. Wilson. Theor. Chem. Acc. 128 (2011) 69-82. doi:10.1007/s00214-010-0764-0
SODIUM (17s,11p,3d,2f) -> [6s,5p,3d,2f]
    11.0   3
* s-type functions
   17    6
     423000.00000000
      63340.00000000
      14410.00000000
       4077.00000000
       1328.00000000
        478.60000000
        186.20000000
         76.92000000
         33.32000000
         15.00000000
          6.86900000
          2.68300000
          1.10900000
          0.45400000
          0.06015000
          0.02382000
          0.00670000
  0.0000180618 -4.4065300e-6  6.6301900e-7  0.0000000000  0.0000000000  0.0000000000
  0.0001404300 -0.0000343443  5.1576900e-6  0.0000000000  0.0000000000  0.0000000000
  0.0007384380 -0.0001801140  0.0000271250  0.0000000000  0.0000000000  0.0000000000
  0.0031118200 -0.0007639000  0.0001146350  0.0000000000  0.0000000000  0.0000000000
  0.0112081000 -0.0027524800  0.0004151180  0.0000000000  0.0000000000  0.0000000000
  0.0352828000 -0.0088601600  0.0013297800  0.0000000000  0.0000000000  0.0000000000
  0.0959897000 -0.0247939000  0.0037559500  0.0000000000  0.0000000000  0.0000000000
  0.2137350000 -0.0605995000  0.0091402500  0.0000000000  0.0000000000  0.0000000000
  0.3486880000 -0.1164460000  0.0179859000  0.0000000000  0.0000000000  0.0000000000
  0.3245660000 -0.1624370000  0.0251477000  0.0000000000  0.0000000000  0.0000000000
  0.1126330000 -0.0438891000  0.0076352200  0.0000000000  0.0000000000  0.0000000000
  0.0070679700  0.3379170000 -0.0614589000  0.0000000000  0.0000000000  0.0000000000
  0.0005980100  0.5613470000 -0.1157210000  0.0000000000  0.0000000000  0.0000000000
  0.0002041300  0.2452400000 -0.1589060000  1.0000000000  0.0000000000  0.0000000000
 -0.0000053087  0.0040675400  0.6264060000  0.0000000000  0.0000000000  0.0000000000
  1.8260500e-6 -0.0012674600  0.4754020000  0.0000000000  1.0000000000  0.0000000000
  0.0000000000  0.0000000000  0.0000000000  0.0000000000  0.0000000000  1.0000000000
* p-type functions
   11    5
        243.30000000
         57.39000000
         18.10000000
          6.57500000
          2.52100000
          0.96070000
          0.35120000
          0.09827000
          0.03734000
          0.01500000
          0.01000000
  0.0022439200 -0.0002224010  0.0000000000  0.0000000000  0.0000000000
  0.0173997000 -0.0017427700  0.0000000000  0.0000000000  0.0000000000
  0.0774125000 -0.0077545600  0.0000000000  0.0000000000  0.0000000000
  0.2191020000 -0.0225187000  0.0000000000  0.0000000000  0.0000000000
  0.3785220000 -0.0384330000  0.0000000000  0.0000000000  0.0000000000
  0.3949020000 -0.0450177000  0.0000000000  0.0000000000  0.0000000000
  0.1604240000 -0.0192132000  0.0000000000  0.0000000000  0.0000000000
  0.0023331100  0.1826970000  0.0000000000  0.0000000000  0.0000000000
  0.0019953600  0.5578970000  1.0000000000  0.0000000000  0.0000000000
 -0.0007773440  0.3730220000  0.0000000000  1.0000000000  0.0000000000
  0.0000000000  0.0000000000  0.0000000000  0.0000000000  1.0000000000
* d-type functions
    3    3
          0.14730000
          0.06230000
          0.02250000
  1.0000000000  0.0000000000  0.0000000000
  0.0000000000  1.0000000000  0.0000000000
  0.0000000000  0.0000000000  1.0000000000
* f-type functions
    2    2
          0.12840000
          0.07000000
  1.0000000000  0.0000000000
  0.0000000000  1.0000000000

/Mg.aug-cc-pVTZ.Prascher.16s11p3d2f.6s5p3d2f.
B.P. Prascher, D.E. Woon, K.A. Peterson, T.H. Dunning, A.K. Wilson. Theor. Chem. Acc. 128 (2011) 69-82. doi:10.1007/s00214-010-0764-0
MAGNESIUM (16s,11p,3d,2f) -> [6s,5p,3d,2f]
    12.0   3
* s-type functions
   16    6
     164900.00000000
      24710.00000000
       5628.00000000
       1596.00000000
        521.00000000
        188.00000000
         73.01000000
         29.90000000
         12.54000000
          4.30600000
          1.82600000
          0.74170000
          0.14570000
          0.07612000
          0.03310000
          0.01200000
  0.0000729929 -0.0000184248  3.5517600e-6  0.0000000000  0.0000000000  0.0000000000
  0.0005666520 -0.0001435000  0.0000276420  0.0000000000  0.0000000000  0.0000000000
  0.0029626900 -0.0007487100  0.0001444040  0.0000000000  0.0000000000  0.0000000000
  0.0122962000 -0.0031440700  0.0006057440  0.0000000000  0.0000000000  0.0000000000
  0.0427324000 -0.0110481000  0.0021352700  0.0000000000  0.0000000000  0.0000000000
  0.1230130000 -0.0336058000  0.0064993400  0.0000000000  0.0000000000  0.0000000000
  0.2748320000 -0.0825946000  0.0161446000  0.0000000000  0.0000000000  0.0000000000
  0.4018180000 -0.1593140000  0.0315766000  0.0000000000  0.0000000000  0.0000000000
  0.2646970000 -0.1528880000  0.0316374000  0.0000000000  0.0000000000  0.0000000000
  0.0332612000  0.1908490000 -0.0439140000  0.0000000000  0.0000000000  0.0000000000
 -0.0044133500  0.5799640000 -0.1510930000  0.0000000000  0.0000000000  0.0000000000
  0.0020602400  0.3720290000 -0.2176680000  0.0000000000  0.0000000000  0.0000000000
 -0.0008384700  0.0211691000  0.2598070000  1.0000000000  0.0000000000  0.0000000000
  0.0007081950 -0.0119344000  0.5472450000  0.0000000000  0.0000000000  0.0000000000
 -0.0002006020  0.0027732900  0.3259100000  0.0000000000  1.0000000000  0.0000000000
  0.0000000000  0.0000000000  0.0000000000  0.0000000000  0.0000000000  1.0000000000
* p-type functions
   11    5
        316.90000000
         74.86000000
         23.72000000
          8.66900000
          3.36300000
          1.31000000
          0.49110000
          0.23640000
          0.08733000
          0.03237000
          0.00900000
  0.0020753200 -0.0003297270  0.0000000000  0.0000000000  0.0000000000
  0.0162869000 -0.0025875400  0.0000000000  0.0000000000  0.0000000000
  0.0738697000 -0.0119120000  0.0000000000  0.0000000000  0.0000000000
  0.2142970000 -0.0350227000  0.0000000000  0.0000000000  0.0000000000
  0.3821540000 -0.0639968000  0.0000000000  0.0000000000  0.0000000000
  0.3981780000 -0.0704436000  0.0000000000  0.0000000000  0.0000000000
  0.1528780000 -0.0375836000  0.0000000000  0.0000000000  0.0000000000
 -0.0043754000  0.1770430000  0.0000000000  0.0000000000  0.0000000000
  0.0062958200  0.5667070000  1.0000000000  0.0000000000  0.0000000000
 -0.0015676900  0.3961430000  0.0000000000  1.0000000000  0.0000000000
  0.0000000000  0.0000000000  0.0000000000  0.0000000000  1.0000000000
* d-type functions
    3    3
          0.29980000
          0.12850000
          0.04440000
  1.0000000000  0.0000000000  0.0000000000
  0.0000000000  1.0000000000  0.0000000000
  0.0000000000  0.0000000000  1.0000000000
* f-type functions
    2    2
          0.24170000
          0.08650000
  1.0000000000  0.0000000000
  0.0000000000  1.0000000000

/Al.aug-cc-pVTZ.Woon.16s10p3d2f.6s5p3d2f.
D.E. Woon, T.H. Dunning. J. Chem. Phys. 98 (1993) 1358-1371. doi:10.1063/1.464303
ALUMINIUM (16s,10p,3d,2f) -> [6s,5p,3d,2f]
    13.0   3
* s-type functions
   16    6
     205500.00000000
      30780.00000000
       7006.00000000
       1985.00000000
        649.10000000
        235.00000000
         91.62000000
         37.67000000
         15.91000000
          5.85000000
          2.54200000
          1.05700000
          0.29310000
          0.14550000
          0.05650000
          0.02210000
  0.0000678836 -0.0000176377  4.0731500e-6  0.0000000000  0.0000000000  0.0000000000
  0.0005271490 -0.0001371950  0.0000316566  0.0000000000  0.0000000000  0.0000000000
  0.0027620300 -0.0007189100  0.0001661160  0.0000000000  0.0000000000  0.0000000000
  0.0114728000 -0.0030114600  0.0006949920  0.0000000000  0.0000000000  0.0000000000
  0.0398188000 -0.0106014000  0.0024551100  0.0000000000  0.0000000000  0.0000000000
  0.1150400000 -0.0321345000  0.0074459800  0.0000000000  0.0000000000  0.0000000000
  0.2608870000 -0.0803156000  0.0188253000  0.0000000000  0.0000000000  0.0000000000
  0.3963860000 -0.1567940000  0.0372772000  0.0000000000  0.0000000000  0.0000000000
  0.2845970000 -0.1683760000  0.0419496000  0.0000000000  0.0000000000  0.0000000000
  0.0444583000  0.1268790000 -0.0354375000  0.0000000000  0.0000000000  0.0000000000
 -0.0048983800  0.5614940000 -0.1751320000  0.0000000000  0.0000000000  0.0000000000
  0.0026125300  0.4366130000 -0.2762030000  0.0000000000  0.0000000000  0.0000000000
 -0.0010891500  0.0357293000  0.1087290000  1.0000000000  0.0000000000  0.0000000000
  0.0007220680 -0.0114563000  0.6528090000  0.0000000000  0.0000000000  0.0000000000
 -0.0001784850  0.0022020100  0.3945870000  0.0000000000  1.0000000000  0.0000000000
  0.0000000000  0.0000000000  0.0000000000  0.0000000000  0.0000000000  1.0000000000
* p-type functions
   10    5
        444.40000000
        105.10000000
         33.47000000
         12.33000000
          4.86900000
          1.96100000
          0.78340000
          0.18880000
          0.05557000
          0.01460000
  0.0016278600 -0.0002863410  0.0000000000  0.0000000000  0.0000000000
  0.0130687000 -0.0024230800  0.0000000000  0.0000000000  0.0000000000
  0.0612341000 -0.0108658000  0.0000000000  0.0000000000  0.0000000000
  0.1878700000 -0.0364307000  0.0000000000  0.0000000000  0.0000000000
  0.3604520000 -0.0641074000  0.0000000000  0.0000000000  0.0000000000
  0.4084540000 -0.0972239000  0.0000000000  0.0000000000  0.0000000000
  0.1886400000  0.0147437000  1.0000000000  0.0000000000  0.0000000000
  0.0097651400  0.5034480000  0.0000000000  0.0000000000  0.0000000000
 -0.0011505700  0.5979840000  0.0000000000  1.0000000000  0.0000000000
  0.0000000000  0.0000000000  0.0000000000  0.0000000000  1.0000000000
* d-type functions
    3    3
          0.10900000
          0.33300000
          0.03560000
  1.0000000000  0.0000000000  0.0000000000
  0.0000000000  1.0000000000  0.0000000000
  0.0000000000  0.0000000000  1.0000000000
* f-type functions
    2    2
          0.24400000
          0.08580000
  1.0000000000  0.0000000000
  0.0000000000  1.0000000000

/Si.aug-cc-pVTZ.Woon.16s10p3d2f.6s5p3d2f.
D.E. Woon, T.H. Dunning. J. Chem. Phys. 98 (1993) 1358-1371. doi:10.1063/1.464303
SILICON (16s,10p,3d,2f) -> [6s,5p,3d,2f]
    14.0   3
* s-type functions
   16    6
     254900.00000000
      38190.00000000
       8690.00000000
       2462.00000000
        804.80000000
        291.30000000
        113.60000000
         46.75000000
         19.82000000
          7.70800000
          3.34000000
          1.40200000
          0.43870000
          0.20700000
          0.07944000
          0.03300000
  0.0000625101 -0.0000166370  4.2625700e-6  0.0000000000  0.0000000000  0.0000000000
  0.0004855530 -0.0001293100  0.0000331062  0.0000000000  0.0000000000  0.0000000000
  0.0025451600 -0.0006788280  0.0001740150  0.0000000000  0.0000000000  0.0000000000
  0.0105866000 -0.0028411700  0.0007275740  0.0000000000  0.0000000000  0.0000000000
  0.0368787000 -0.0100551000  0.0025833300  0.0000000000  0.0000000000  0.0000000000
  0.1074790000 -0.0305774000  0.0078635400  0.0000000000  0.0000000000  0.0000000000
  0.2479360000 -0.0777256000  0.0202155000  0.0000000000  0.0000000000  0.0000000000
  0.3909270000 -0.1542360000  0.0407320000  0.0000000000  0.0000000000  0.0000000000
  0.3020260000 -0.1803680000  0.0499358000  0.0000000000  0.0000000000  0.0000000000
  0.0559236000  0.0798218000 -0.0249396000  0.0000000000  0.0000000000  0.0000000000
 -0.0040240600  0.5474410000 -0.1903500000  0.0000000000  0.0000000000  0.0000000000
  0.0025803000  0.4801190000 -0.3183500000  0.0000000000  0.0000000000  0.0000000000
 -0.0010382100  0.0474846000  0.0948036000  1.0000000000  0.0000000000  0.0000000000
  0.0006079300 -0.0106996000  0.6811800000  0.0000000000  0.0000000000  0.0000000000
 -0.0001540220  0.0021987100  0.3956720000  0.0000000000  1.0000000000  0.0000000000
  0.0000000000  0.0000000000  0.0000000000  0.0000000000  0.0000000000  1.0000000000
* p-type functions
   10    5
        481.50000000
        113.90000000
         36.23000000
         13.34000000
          5.25200000
          2.12000000
          0.85610000
          0.25280000
          0.07889000
          0.02370000
  0.0019204500 -0.0004052200  0.0000000000  0.0000000000  0.0000000000
  0.0153552000 -0.0033589600  0.0000000000  0.0000000000  0.0000000000
  0.0713991000 -0.0152860000  0.0000000000  0.0000000000  0.0000000000
  0.2130520000 -0.0489218000  0.0000000000  0.0000000000  0.0000000000
  0.3903540000 -0.0855008000  0.0000000000  0.0000000000  0.0000000000
  0.3937210000 -0.1121370000  0.0000000000  0.0000000000  0.0000000000
  0.1325650000  0.0618274000  1.0000000000  0.0000000000  0.0000000000
  0.0039563000  0.5519190000  0.0000000000  0.0000000000  0.0000000000
  0.0003316240  0.5234920000  0.0000000000  1.0000000000  0.0000000000
  0.0000000000  0.0000000000  0.0000000000  0.0000000000  1.0000000000
* d-type functions
    3    3
          0.15900000
          0.48100000
          0.05560000
  1.0000000000  0.0000000000  0.0000000000
  0.0000000000  1.0000000000  0.0000000000
  0.0000000000  0.0000000000  1.0000000000
* f-type functions
    2    2
          0.33600000
          0.12500000
  1.0000000000  0.0000000000
  0.0000000000  1.0000000000

/P.aug-cc-pVTZ.Woon.16s10p3d2f.6s5p3d2f.
D.E. Woon, T.H. Dunning. J. Chem. Phys. 98 (1993) 1358-1371. doi:10.1063/1.464303
PHOSPHORUS (16s,10p,3d,2f) -> [6s,5p,3d,2f]
    15.0   3
* s-type functions
   16    6
     312400.00000000
      46800.00000000
      10650.00000000
       3018.00000000
        986.80000000
        357.40000000
        139.60000000
         57.63000000
         24.60000000
         10.12000000
          4.28300000
          1.80500000
          0.61580000
          0.27820000
          0.10550000
          0.04090000
  0.0000576960 -0.0000156709  4.3063100e-6  0.0000000000  0.0000000000  0.0000000000
  0.0004482960 -0.0001217240  0.0000334194  0.0000000000  0.0000000000  0.0000000000
  0.0023493900 -0.0006396720  0.0001758850  0.0000000000  0.0000000000  0.0000000000
  0.0097826500 -0.0026742600  0.0007343400  0.0000000000  0.0000000000  0.0000000000
  0.0341467000 -0.0094983100  0.0026177500  0.0000000000  0.0000000000  0.0000000000
  0.1002040000 -0.0289349000  0.0079785200  0.0000000000  0.0000000000  0.0000000000
  0.2343720000 -0.0745121000  0.0207940000  0.0000000000  0.0000000000  0.0000000000
  0.3824340000 -0.1499380000  0.0424446000  0.0000000000  0.0000000000  0.0000000000
  0.3180880000 -0.1894670000  0.0563436000  0.0000000000  0.0000000000  0.0000000000
  0.0707788000  0.0363270000 -0.0127358000  0.0000000000  0.0000000000  0.0000000000
 -0.0018179900  0.5288160000 -0.1964950000  0.0000000000  0.0000000000  0.0000000000
  0.0021618000  0.5191150000 -0.3535550000  0.0000000000  0.0000000000  0.0000000000
 -0.0008347420  0.0605547000  0.0741407000  1.0000000000  0.0000000000  0.0000000000
  0.0004322970 -0.0092569500  0.7009120000  0.0000000000  0.0000000000  0.0000000000
 -0.0001142510  0.0021037200  0.4047390000  0.0000000000  1.0000000000  0.0000000000
  0.0000000000  0.0000000000  0.0000000000  0.0000000000  0.0000000000  1.0000000000
* p-type functions
   10    5
        504.90000000
        119.40000000
         37.96000000
         13.95000000
          5.45700000
          2.17700000
          0.80100000
          0.28770000
          0.09714000
          0.03070000
  0.0023372800 -0.0005552360  0.0000000000  0.0000000000  0.0000000000
  0.0185410000 -0.0044591300  0.0000000000  0.0000000000  0.0000000000
  0.0849693000 -0.0206350000  0.0000000000  0.0000000000  0.0000000000
  0.2446150000 -0.0617694000  0.0000000000  0.0000000000  0.0000000000
  0.4227660000 -0.1089240000  0.0000000000  0.0000000000  0.0000000000
  0.3684390000 -0.1055990000  0.0000000000  0.0000000000  0.0000000000
  0.0772734000  0.1534830000  1.0000000000  0.0000000000  0.0000000000
 -0.0037900500  0.5769810000  0.0000000000  0.0000000000  0.0000000000
  0.0015993900  0.4224390000  0.0000000000  1.0000000000  0.0000000000
  0.0000000000  0.0000000000  0.0000000000  0.0000000000  1.0000000000
* d-type functions
    3    3
          0.21600000
          0.65200000
          0.07750000
  1.0000000000  0.0000000000  0.0000000000
  0.0000000000  1.0000000000  0.0000000000
  0.0000000000  0.0000000000  1.0000000000
* f-type functions
    2    2
          0.45200000
          0.16500000
  1.0000000000  0.0000000000
  0.0000000000  1.0000000000

/S.aug-cc-pVTZ.Woon.16s10p3d2f.6s5p3d2f.
D.E. Woon, T.H. Dunning. J. Chem. Phys. 98 (1993) 1358-1371. doi:10.1063/1.464303
SULFUR (16s,10p,3d,2f) -> [6s,5p,3d,2f]
    16.0   3
* s-type functions
   16    6
     374100.00000000
      56050.00000000
      12760.00000000
       3615.00000000
       1183.00000000
        428.80000000
        167.80000000
         69.47000000
         29.84000000
         12.72000000
          5.24400000
          2.21900000
          0.77670000
          0.34900000
          0.13220000
          0.04970000
  0.0000542140 -0.0000149837  4.3506600e-6  0.0000000000  0.0000000000  0.0000000000
  0.0004208550 -0.0001161980  0.0000337140  0.0000000000  0.0000000000  0.0000000000
  0.0022069800 -0.0006115830  0.0001776740  0.0000000000  0.0000000000  0.0000000000
  0.0091925800 -0.0025537000  0.0007411160  0.0000000000  0.0000000000  0.0000000000
  0.0321123000 -0.0090870800  0.0026459100  0.0000000000  0.0000000000  0.0000000000
  0.0946683000 -0.0277045000  0.0080748700  0.0000000000  0.0000000000  0.0000000000
  0.2236300000 -0.0720020000  0.0212276000  0.0000000000  0.0000000000  0.0000000000
  0.3743930000 -0.1464390000  0.0438323000  0.0000000000  0.0000000000  0.0000000000
  0.3291080000 -0.1951500000  0.0612716000  0.0000000000  0.0000000000  0.0000000000
  0.0847038000  0.0081919300 -0.0036151000  0.0000000000  0.0000000000  0.0000000000
  0.0004408510  0.5166010000 -0.2045100000  0.0000000000  0.0000000000  0.0000000000
  0.0016482700  0.5421780000 -0.3818710000  0.0000000000  0.0000000000  0.0000000000
 -0.0006223320  0.0688430000  0.0826844000  1.0000000000  0.0000000000  0.0000000000
  0.0003013060 -0.0091807200  0.7141470000  0.0000000000  0.0000000000  0.0000000000
 -0.0000841290  0.0022683200  0.3937910000  0.0000000000  1.0000000000  0.0000000000
  0.0000000000  0.0000000000  0.0000000000  0.0000000000  0.0000000000  1.0000000000
* p-type functions
   10    5
        574.40000000
        135.80000000
         43.19000000
         15.87000000
          6.20800000
          2.48300000
          0.86880000
          0.32290000
          0.10980000
          0.03510000
  0.0024226400 -0.0006201020  0.0000000000  0.0000000000  0.0000000000
  0.0192796000 -0.0049388200  0.0000000000  0.0000000000  0.0000000000
  0.0885401000 -0.0232647000  0.0000000000  0.0000000000  0.0000000000
  0.2546540000 -0.0685195000  0.0000000000  0.0000000000  0.0000000000
  0.4339840000 -0.1238960000  0.0000000000  0.0000000000  0.0000000000
  0.3549530000 -0.0969499000  0.0000000000  0.0000000000  0.0000000000
  0.0618941000  0.2282150000  1.0000000000  0.0000000000  0.0000000000
 -0.0050297700  0.5693940000  0.0000000000  0.0000000000  0.0000000000
  0.0020981300  0.3663020000  0.0000000000  1.0000000000  0.0000000000
  0.0000000000  0.0000000000  0.0000000000  0.0000000000  1.0000000000
* d-type functions
    3    3
          0.26900000
          0.81900000
          0.10100000
  1.0000000000  0.0000000000  0.0000000000
  0.0000000000  1.0000000000  0.0000000000
  0.0000000000  0.0000000000  1.0000000000
* f-type functions
    2    2
          0.55700000
          0.21800000
  1.0000000000  0.0000000000
  0.0000000000  1.0000000000

/Cl.aug-cc-pVTZ.Woon.16s10p3d2f.6s5p3d2f.
D.E. Woon, T.H. Dunning. J. Chem. Phys. 98 (1993) 1358-1371. doi:10.1063/1.464303
CHLORINE (16s,10p,3d,2f) -> [6s,5p,3d,2f]
    17.0   3
* s-type functions
   16    6
     456100.00000000
      68330.00000000
      15550.00000000
       4405.00000000
       1439.00000000
        520.40000000
        203.10000000
         83.96000000
         36.20000000
         15.83000000
          6.33400000
          2.69400000
          0.97680000
          0.43130000
          0.16250000
          0.05910000
  0.0000492970 -0.0000138304  4.1854600e-6  0.0000000000  0.0000000000  0.0000000000
  0.0003830290 -0.0001072790  0.0000324395  0.0000000000  0.0000000000  0.0000000000
  0.0020085400 -0.0005650830  0.0001711050  0.0000000000  0.0000000000  0.0000000000
  0.0083855800 -0.0023613500  0.0007141760  0.0000000000  0.0000000000  0.0000000000
  0.0294703000 -0.0084588600  0.0025670500  0.0000000000  0.0000000000  0.0000000000
  0.0878325000 -0.0259638000  0.0078855200  0.0000000000  0.0000000000  0.0000000000
  0.2114730000 -0.0686362000  0.0210867000  0.0000000000  0.0000000000  0.0000000000
  0.3653640000 -0.1418740000  0.0442264000  0.0000000000  0.0000000000  0.0000000000
  0.3408840000 -0.1993190000  0.0651670000  0.0000000000  0.0000000000  0.0000000000
  0.1021330000 -0.0195662000  0.0060301200  0.0000000000  0.0000000000  0.0000000000
  0.0031167500  0.4997410000 -0.2064950000  0.0000000000  0.0000000000  0.0000000000
  0.0010575100  0.5637360000 -0.4058710000  0.0000000000  0.0000000000  0.0000000000
 -0.0003780000  0.0790325000  0.0759558000  1.0000000000  0.0000000000  0.0000000000
  0.0001561360 -0.0083509100  0.7256610000  0.0000000000  0.0000000000  0.0000000000
 -0.0000514126  0.0023245600  0.3944230000  0.0000000000  1.0000000000  0.0000000000
  0.0000000000  0.0000000000  0.0000000000  0.0000000000  0.0000000000  1.0000000000
* p-type functions
   10    5
        663.30000000
        156.80000000
         49.98000000
         18.42000000
          7.24000000
          2.92200000
          1.02200000
          0.38180000
          0.13010000
          0.04190000
  0.0024044800 -0.0006521450  0.0000000000  0.0000000000  0.0000000000
  0.0192148000 -0.0051944500  0.0000000000  0.0000000000  0.0000000000
  0.0885097000 -0.0246938000  0.0000000000  0.0000000000  0.0000000000
  0.2560200000 -0.0728167000  0.0000000000  0.0000000000  0.0000000000
  0.4369270000 -0.1340300000  0.0000000000  0.0000000000  0.0000000000
  0.3503340000 -0.0947742000  0.0000000000  0.0000000000  0.0000000000
  0.0585495000  0.2622890000  1.0000000000  0.0000000000  0.0000000000
 -0.0045842300  0.5646670000  0.0000000000  0.0000000000  0.0000000000
  0.0022697000  0.3412500000  0.0000000000  1.0000000000  0.0000000000
  0.0000000000  0.0000000000  0.0000000000  0.0000000000  1.0000000000
* d-type functions
    3    3
          1.04600000
          0.34400000
          0.13500000
  1.0000000000  0.0000000000  0.0000000000
  0.0000000000  1.0000000000  0.0000000000
  0.0000000000  0.0000000000  1.0000000000
* f-type functions
    2    2
          0.70600000
          0.31200000
  1.0000000000  0.0000000000
  0.0000000000  1.0000000000

/Ar.aug-cc-pVTZ.Woon.16s10p3d2f.6s5p3d2f.
D.E. Woon, T.H. Dunning. J. Chem. Phys. 98 (1993) 1358-1371. doi:10.1063/1.464303
ARGON (16s,10p,3d,2f) -> [6s,5p,3d,2f]
    18.0   3
* s-type functions
   16    6
     545000.00000000
      81640.00000000
      18580.00000000
       5261.00000000
       1717.00000000
        619.90000000
        241.60000000
         99.79000000
         43.15000000
         19.14000000
          7.48800000
          3.20500000
          1.19600000
          0.52040000
          0.19540000
          0.06850000
  0.0000455828 -0.0000129551  0.0000040499  0.0000000000  0.0000000000  0.0000000000
  0.0003541080 -0.0001004280  0.0000313691  0.0000000000  0.0000000000  0.0000000000
  0.0018579700 -0.0005295830  0.0001656460  0.0000000000  0.0000000000  0.0000000000
  0.0077685100 -0.0022139600  0.0006916620  0.0000000000  0.0000000000  0.0000000000
  0.0274232000 -0.0079684500  0.0024979000  0.0000000000  0.0000000000  0.0000000000
  0.0823836000 -0.0245803000  0.0077107400  0.0000000000  0.0000000000  0.0000000000
  0.2012300000 -0.0657798000  0.0208714000  0.0000000000  0.0000000000  0.0000000000
  0.3567810000 -0.1379420000  0.0443965000  0.0000000000  0.0000000000  0.0000000000
  0.3495630000 -0.2016300000  0.0680224000  0.0000000000  0.0000000000  0.0000000000
  0.1182660000 -0.0412834000  0.0141350000  0.0000000000  0.0000000000  0.0000000000
  0.0056019000  0.4846800000 -0.2074890000  0.0000000000  0.0000000000  0.0000000000
  0.0004834730  0.5792240000 -0.4250450000  0.0000000000  0.0000000000  0.0000000000
 -0.0001480850  0.0879083000  0.0704855000  1.0000000000  0.0000000000  0.0000000000
  0.0000292025 -0.0072755300  0.7336270000  0.0000000000  0.0000000000  0.0000000000
 -0.0000231604  0.0023288400  0.3960050000  0.0000000000  1.0000000000  0.0000000000
  0.0000000000  0.0000000000  0.0000000000  0.0000000000  0.0000000000  1.0000000000
* p-type functions
   10    5
        761.80000000
        180.20000000
         57.50000000
         21.24000000
          8.38800000
          3.41600000
          1.20600000
          0.45230000
          0.15450000
          0.04870000
  0.0023697600 -0.0006672110  0.0000000000  0.0000000000  0.0000000000
  0.0190199000 -0.0053271700  0.0000000000  0.0000000000  0.0000000000
  0.0880807000 -0.0255494000  0.0000000000  0.0000000000  0.0000000000
  0.2563770000 -0.0757197000  0.0000000000  0.0000000000  0.0000000000
  0.4387110000 -0.1411330000  0.0000000000  0.0000000000  0.0000000000
  0.3475690000 -0.0932768000  0.0000000000  0.0000000000  0.0000000000
  0.0566740000  0.2828720000  1.0000000000  0.0000000000  0.0000000000
 -0.0052388200  0.5624500000  0.0000000000  0.0000000000  0.0000000000
  0.0016437600  0.3250590000  0.0000000000  1.0000000000  0.0000000000
  0.0000000000  0.0000000000  0.0000000000  0.0000000000  1.0000000000
* d-type functions
    3    3
          0.41000000
          1.25400000
          0.16900000
  1.0000000000  0.0000000000  0.0000000000
  0.0000000000  1.0000000000  0.0000000000
  0.0000000000  0.0000000000  1.0000000000
* f-type functions
    2    2
          0.89000000
          0.40600000
  1.0000000000  0.0000000000
  0.0000000000  1.0000000000

/Sc.aug-cc-pVTZ.Balabanov.21s17p9d3f2g.8s7p5d3f2g.
N.B. Balabanov, K.A. Peterson. J. Chem. Phys. 123 (2005) 064107. doi:10.1063/1.1998907
SCANDIUM (21s,17p,9d,3f,2g) -> [8s,7p,5d,3f,2g]
    21.0   4
* s-type functions
   21    8
    2715278.00000000
     406598.40000000
      92530.04000000
      26207.92000000
       8549.42900000
       3085.97500000
       1203.17200000
        498.48690000
        216.73600000
         97.87476000
         45.20433000
         20.21187000
          9.57475100
          4.54034600
          1.99568700
          0.94221500
          0.41784500
          0.09576100
          0.05135100
          0.02387800
          0.01110000
  8.1472210e-6 -4.7221090e-6  9.1399050e-7 -2.2019510e-7 -3.7572380e-7 -5.9627680e-7  0.0000000000  0.0000000000
  6.3347880e-5 -3.6718290e-5  7.1085130e-6 -1.7114190e-6 -2.9819070e-6 -4.8228530e-6  0.0000000000  0.0000000000
  0.0003330384 -0.0001930883  3.7381260e-5 -9.0084690e-6 -1.5225860e-5 -2.3950050e-5  0.0000000000  0.0000000000
  0.0014040550 -0.0008146870  0.0001578828 -3.7999970e-5 -6.6846860e-5 -0.0001090335  0.0000000000  0.0000000000
  0.0050817250 -0.0029555260  0.0005737686 -0.0001383227 -0.0002313129 -0.0003601944  0.0000000000  0.0000000000
  0.0162692600 -0.0095200350  0.0018592440 -0.0004473692 -0.0007959729 -0.0013112330  0.0000000000  0.0000000000
  0.0462457700 -0.0274685800  0.0054331820 -0.0013106910 -0.0021619610 -0.0033224350  0.0000000000  0.0000000000
  0.1137223000 -0.0699152800  0.0142538700 -0.0034298600 -0.0062064590 -0.0103752000  0.0000000000  0.0000000000
  0.2257636000 -0.1499251000  0.0324614400 -0.0078475790 -0.0126190500 -0.0189217400  0.0000000000  0.0000000000
  0.3106700000 -0.2459153000  0.0600345400 -0.0144718900 -0.0273945900 -0.0475528700  0.0000000000  0.0000000000
  0.2191906000 -0.2401293000  0.0691610500 -0.0169066900 -0.0233651600 -0.0293169200  0.0000000000  0.0000000000
  0.0721587900  0.0356798700 -0.0211308400  0.0053961150 -0.0057346270 -0.0309008800  0.0000000000  0.0000000000
  0.1187030000  0.4915023000 -0.2666832000  0.0667106200  0.1536025000  0.3074597000  0.0000000000  0.0000000000
  0.1220532000  0.4911381000 -0.4367591000  0.1178356000  0.1447100000  0.1803100000  0.0000000000  0.0000000000
  0.0213679500  0.0912063300  0.0649824300 -0.0273813400  0.0935969900  0.2358178000  0.0000000000  0.0000000000
 -0.0005357246 -0.0053567230  0.7009599000 -0.2260149000 -0.8687730000 -2.3885440000  0.0000000000  0.0000000000
  0.0002435774  0.0008812836  0.4515562000 -0.3073539000  0.0211459700  2.3294070000  0.0000000000  0.0000000000
 -8.7966170e-5 -0.0007605536  0.0301191000  0.2544054000  2.2754980000  0.9918252000  0.0000000000  0.0000000000
  7.8782460e-5  0.0006340116 -0.0132948000  0.5981590000 -1.1907700000 -3.5072400000  0.0000000000  0.0000000000
 -1.6371550e-5 -0.0001556163  0.0046336790  0.3115202000 -0.7674257000  2.2628040000  1.0000000000  0.0000000000
  0.0000000000  0.0000000000  0.0000000000  0.0000000000  0.0000000000  0.0000000000  0.0000000000  1.0000000000
* p-type functions
   17    7
      10592.19000000
       2507.53300000
        814.45710000
        311.51950000
        131.96170000
         59.98718000
         28.66250000
         14.10851000
          7.10370600
          3.60920000
          1.77607000
          0.85476000
          0.40223900
          0.15466500
          0.06494500
          0.02635900
          0.01066000
  0.0000450000 -0.0000150000 -0.0000040000  0.0000040000  0.0000090000  0.0000000000  0.0000000000
  0.0004010000 -0.0001310000 -0.0000320000  0.0000390000  0.0000740000  0.0000000000  0.0000000000
  0.0023020000 -0.0007570000 -0.0001850000  0.0002210000  0.0004790000  0.0000000000  0.0000000000
  0.0100370000 -0.0033180000 -0.0008080000  0.0009840000  0.0018690000  0.0000000000  0.0000000000
  0.0349540000 -0.0117060000 -0.0028700000  0.0034230000  0.0074240000  0.0000000000  0.0000000000
  0.0979090000 -0.0336040000 -0.0082070000  0.0099930000  0.0187630000  0.0000000000  0.0000000000
  0.2106800000 -0.0748790000 -0.0184730000  0.0219160000  0.0487170000  0.0000000000  0.0000000000
  0.3300930000 -0.1225480000 -0.0301010000  0.0370080000  0.0654400000  0.0000000000  0.0000000000
  0.3310270000 -0.1302760000 -0.0329430000  0.0377940000  0.1079480000  0.0000000000  0.0000000000
  0.1579600000  0.0145960000  0.0079580000 -0.0043790000 -0.0587130000  0.0000000000  0.0000000000
  0.0220990000  0.3091840000  0.0879930000 -0.1101640000 -0.1703060000  0.0000000000  0.0000000000
 -0.0016050000  0.4629980000  0.1523770000 -0.1610170000 -0.7549770000  0.0000000000  0.0000000000
 -0.0013260000  0.3049570000  0.0971700000 -0.1824820000  0.6201170000  0.0000000000  0.0000000000
 -0.0002800000  0.0508780000 -0.2569380000  0.3886110000  1.1675480000  0.0000000000  0.0000000000
  0.0000340000 -0.0044930000 -0.5878150000  0.6911000000 -1.0095310000  0.0000000000  0.0000000000
 -0.0000130000  0.0018320000 -0.3054210000  0.0796040000 -0.1889910000  1.0000000000  0.0000000000
  0.0000000000  0.0000000000  0.0000000000  0.0000000000  0.0000000000  0.0000000000  1.0000000000
* d-type functions
    9    5
         50.51380000
         14.74050000
          5.19500000
          2.02846000
          0.80408600
          0.30768900
          0.11139200
          0.03735200
          0.01244000
  0.0042660000 -0.0043890000  0.0058590000  0.0000000000  0.0000000000
  0.0277080000 -0.0283630000  0.0373230000  0.0000000000  0.0000000000
  0.1000010000 -0.1051370000  0.1419240000  0.0000000000  0.0000000000
  0.2315810000 -0.2348540000  0.3068960000  0.0000000000  0.0000000000
  0.3460330000 -0.3246090000  0.3081890000  0.0000000000  0.0000000000
  0.3733740000 -0.0642890000 -0.7607170000  0.0000000000  0.0000000000
  0.2642880000  0.6017490000 -0.2047750000  0.0000000000  0.0000000000
  0.0636670000  0.3903000000  0.7892710000  1.0000000000  0.0000000000
  0.0000000000  0.0000000000  0.0000000000  0.0000000000  1.0000000000
* f-type functions
    3    3
          0.72670000
          0.16650000
          0.04063000
  1.0000000000  0.0000000000  0.0000000000
  0.0000000000  1.0000000000  0.0000000000
  0.0000000000  0.0000000000  1.0000000000
* g-type functions
    2    2
          0.41870000
          0.09473000
  1.0000000000  0.0000000000
  0.0000000000  1.0000000000

/Ti.aug-cc-pVTZ.Balabanov.21s17p9d3f2g.8s7p5d3f2g.
N.B. Balabanov, K.A. Peterson. J. Chem. Phys. 123 (2005) 064107. doi:10.1063/1.1998907
TITANIUM (21s,17p,9d,3f,2g) -> [8s,7p,5d,3f,2g]
    22.0   4
* s-type functions
   21    8
    3014643.00000000
     451432.90000000
     102733.80000000
      29098.17000000
       9492.33000000
       3426.34600000
       1335.89600000
        553.50260000
        240.69250000
        108.72930000
         50.26457000
         22.58004000
         10.71432000
          5.09354600
          2.24418300
          1.05957000
          0.46884900
          0.10614300
          0.05526200
          0.02546500
          0.01173000
  8.0607820e-6 -4.6304860e-6  9.2305590e-7 -2.1803230e-7 -3.9751260e-7 -6.3024830e-7  0.0000000000  0.0000000000
  6.2675180e-5 -3.6004510e-5  7.1789740e-6 -1.6948600e-6 -3.1610800e-6 -5.0845850e-6  0.0000000000  0.0000000000
  0.0003295006 -0.0001893420  3.7751340e-5 -8.9192080e-6 -1.6093750e-5 -2.5344820e-5  0.0000000000  0.0000000000
  0.0013892030 -0.0007988781  0.0001594532 -3.7636330e-5 -7.0929470e-5 -0.0001148260  0.0000000000  0.0000000000
  0.0050284690 -0.0028986980  0.0005795150 -0.0001369575 -0.0002442710 -0.0003817497  0.0000000000  0.0000000000
  0.0161041900 -0.0093397010  0.0018784140 -0.0004432894 -0.0008457892 -0.0013796450  0.0000000000  0.0000000000
  0.0458123200 -0.0269746400  0.0054927470 -0.0012988680 -0.0022822080 -0.0035316660  0.0000000000  0.0000000000
  0.1128613000 -0.0687891300  0.0144329700 -0.0034067520 -0.0066198730 -0.0109222500  0.0000000000  0.0000000000
  0.2248193000 -0.1481037000  0.0329640800 -0.0078108290 -0.0133502400 -0.0202955400  0.0000000000  0.0000000000
  0.3114571000 -0.2445253000  0.0612549300 -0.0144924500 -0.0295583000 -0.0502440400  0.0000000000  0.0000000000
  0.2224995000 -0.2419916000  0.0713411300 -0.0170813600 -0.0247703900 -0.0331630900  0.0000000000  0.0000000000
  0.0729312800  0.0318379000 -0.0197315000  0.0048976660 -0.0084146240 -0.0309806300  0.0000000000  0.0000000000
  0.1160683000  0.4932686000 -0.2741869000  0.0675310800  0.1693855000  0.3244673000  0.0000000000  0.0000000000
  0.1194774000  0.4939655000 -0.4440977000  0.1173318000  0.1500787000  0.2155689000  0.0000000000  0.0000000000
  0.0209786800  0.0919631300  0.0777608400 -0.0298502500  0.0978777700  0.1499616000  0.0000000000  0.0000000000
 -0.0005091715 -0.0053169920  0.7068444000 -0.2277634000 -0.9653608000 -2.4207410000  0.0000000000  0.0000000000
  0.0002217859  0.0008085624  0.4413892000 -0.2928115000  0.1489721000  2.5308740000  0.0000000000  0.0000000000
 -7.6368960e-5 -0.0006918459  0.0279976900  0.2665300000  2.1911790000  0.3423600000  0.0000000000  0.0000000000
  7.7195390e-5  0.0006086512 -0.0121079000  0.5912406000 -1.2433250000 -2.7337220000  0.0000000000  0.0000000000
 -1.1490560e-5 -0.0001313842  0.0043247620  0.3037229000 -0.6711916000  2.0062680000  1.0000000000  0.0000000000
  0.0000000000  0.0000000000  0.0000000000  0.0000000000  0.0000000000  0.0000000000  0.0000000000  1.0000000000
* p-type functions
   17    7
      11912.03000000
       2819.94700000
        915.94790000
        350.38420000
        148.48250000
         67.53944000
         32.30332000
         15.92786000
          8.03803500
          4.09391600
          2.02239000
          0.97610200
          0.45959500
          0.17715200
          0.07351700
          0.02940100
          0.01176000
  0.0000440000 -0.0000150000  0.0000040000  0.0000040000  0.0000090000  0.0000000000  0.0000000000
  0.0003910000 -0.0001310000  0.0000310000  0.0000390000  0.0000730000  0.0000000000  0.0000000000
  0.0022480000 -0.0007550000  0.0001820000  0.0002230000  0.0004680000  0.0000000000  0.0000000000
  0.0098230000 -0.0033190000  0.0007950000  0.0009920000  0.0018560000  0.0000000000  0.0000000000
  0.0343380000 -0.0117500000  0.0028330000  0.0034760000  0.0072930000  0.0000000000  0.0000000000
  0.0966660000 -0.0339220000  0.0081540000  0.0101720000  0.0188560000  0.0000000000  0.0000000000
  0.2094170000 -0.0761640000  0.0184720000  0.0225760000  0.0484050000  0.0000000000  0.0000000000
  0.3301890000 -0.1257020000  0.0304000000  0.0382380000  0.0673780000  0.0000000000  0.0000000000
  0.3319360000 -0.1330980000  0.0330470000  0.0393370000  0.1045410000  0.0000000000  0.0000000000
  0.1584880000  0.0174060000 -0.0082510000 -0.0061060000 -0.0537600000  0.0000000000  0.0000000000
  0.0223100000  0.3151650000 -0.0885540000 -0.1129620000 -0.1917490000  0.0000000000  0.0000000000
 -0.0015660000  0.4618140000 -0.1496120000 -0.1681140000 -0.6947200000  0.0000000000  0.0000000000
 -0.0013240000  0.2998560000 -0.0942270000 -0.1659320000  0.5601620000  0.0000000000  0.0000000000
 -0.0002710000  0.0500000000  0.2508460000  0.3914030000  1.1813360000  0.0000000000  0.0000000000
  0.0000320000 -0.0042300000  0.5866430000  0.6818400000 -0.9932720000  0.0000000000  0.0000000000
 -0.0000120000  0.0017250000  0.3135350000  0.0840310000 -0.2096810000  1.0000000000  0.0000000000
  0.0000000000  0.0000000000  0.0000000000  0.0000000000  0.0000000000  0.0000000000  1.0000000000
* d-type functions
    9    5
         64.01300000
         18.81790000
          6.72870000
          2.66413000
          1.07868000
          0.42320900
          0.15599900
          0.05188400
          0.01726000
  0.0038870000 -0.0039700000  0.0064180000  0.0000000000  0.0000000000
  0.0263990000 -0.0268730000  0.0438090000  0.0000000000  0.0000000000
  0.0975110000 -0.1022750000  0.1723250000  0.0000000000  0.0000000000
  0.2328480000 -0.2377280000  0.3753320000  0.0000000000  0.0000000000
  0.3531520000 -0.3121140000  0.2249470000  0.0000000000  0.0000000000
  0.3721860000 -0.0423780000 -0.7919070000  0.0000000000  0.0000000000
  0.2476720000  0.5886580000 -0.1044280000  0.0000000000  0.0000000000
  0.0582360000  0.4103020000  0.7135420000  1.0000000000  0.0000000000
  0.0000000000  0.0000000000  0.0000000000  0.0000000000  1.0000000000
* f-type functions
    3    3
          1.24830000
          0.28360000
          0.08266000
  1.0000000000  0.0000000000  0.0000000000
  0.0000000000  1.0000000000  0.0000000000
  0.0000000000  0.0000000000  1.0000000000
* g-type functions
    2    2
          0.72510000
          0.21148000
  1.0000000000  0.0000000000
  0.0000000000  1.0000000000

/V.aug-cc-pVTZ.Balabanov.21s17p9d3f2g.8s7p5d3f2g.
N.B. Balabanov, K.A. Peterson. J. Chem. Phys. 123 (2005) 064107. doi:10.1063/1.1998907
VANADIUM (21s,17p,9d,3f,2g) -> [8s,7p,5d,3f,2g]
    23.0   4
* s-type functions
   21    8
    3321857.00000000
     497435.60000000
     113202.70000000
      32063.33000000
      10459.62000000
       3775.50600000
       1472.04000000
        609.93310000
        265.26340000
        119.86070000
         55.44891000
         24.98372000
         11.88056000
          5.66031100
          2.49570300
          1.17786600
          0.52004400
          0.11596500
          0.05893800
          0.02694600
          0.01232000
  8.0399990e-6 -4.5030030e-6  9.3206480e-7 -2.1589440e-7 -4.0934160e-7 -6.5399630e-7  0.0000000000  0.0000000000
  6.2514020e-5 -3.5012950e-5  7.2493060e-6 -1.6785190e-6 -3.2589560e-6 -5.2673990e-6  0.0000000000  0.0000000000
  0.0003286553 -0.0001841339  3.8119670e-5 -8.8312130e-6 -0.0000165639 -2.6320920e-5  0.0000000000  0.0000000000
  0.0013856970 -0.0007769216  0.0001610238 -3.7277690e-5 -7.3166890e-5 -0.0001188719  0.0000000000  0.0000000000
  0.0050162170 -0.0028195050  0.0005852210 -0.0001356099 -0.0002512784 -0.0003968552  0.0000000000  0.0000000000
  0.0160693100 -0.0090874860  0.0018975020 -0.0004392351 -0.0008732657 -0.0014274600  0.0000000000  0.0000000000
  0.0457424200 -0.0262713400  0.0055509090 -0.0012869480 -0.0023476540 -0.0036791810  0.0000000000  0.0000000000
  0.1128544000 -0.0671272600  0.0146058400 -0.0033821490 -0.0068531500 -0.0113077400  0.0000000000  0.0000000000
  0.2254344000 -0.1451130000  0.0334297400 -0.0077656460 -0.0137642000 -0.0212822100  0.0000000000  0.0000000000
  0.3140461000 -0.2412483000  0.0623572200 -0.0144798500 -0.0308467900 -0.0521827100  0.0000000000  0.0000000000
  0.2267819000 -0.2416314000  0.0731243500 -0.0171550200 -0.0256220800 -0.0359901400  0.0000000000  0.0000000000
  0.0733406900  0.0306736200 -0.0191147200  0.0046101010 -0.0100512300 -0.0308875900  0.0000000000  0.0000000000
  0.1102474000  0.4970415000 -0.2817249000  0.0682783100  0.1795330000  0.3380657000  0.0000000000  0.0000000000
  0.1131358000  0.4958875000 -0.4488151000  0.1161368000  0.1522400000  0.2389559000  0.0000000000  0.0000000000
  0.0197129500  0.0918186800  0.0920269600 -0.0327704900  0.0948388700  0.0760906800  0.0000000000  0.0000000000
 -0.0004719088 -0.0053925140  0.7110117000 -0.2280000000 -1.0148760000 -2.4081130000  0.0000000000  0.0000000000
  0.0001861606  0.0007102380  0.4309274000 -0.2793991000  0.2308810000  2.6335920000  0.0000000000  0.0000000000
 -6.2085980e-5 -0.0006363128  0.0260458900  0.2771165000  2.1133210000 -0.0535851000  0.0000000000  0.0000000000
  7.2953140e-5  0.0005979932 -0.0110104900  0.5852999000 -1.2530480000 -2.2301350000  0.0000000000  0.0000000000
 -6.3620620e-6 -0.0001100879  0.0041063000  0.2963946000 -0.6139502000  1.8207870000  1.0000000000  0.0000000000
  0.0000000000  0.0000000000  0.0000000000  0.0000000000  0.0000000000  0.0000000000  0.0000000000  1.0000000000
* p-type functions
   17    7
      13273.20000000
       3142.12600000
       1020.58800000
        390.44070000
        165.50430000
         75.32006000
         36.05503000
         17.80436000
          9.00292900
          4.59454400
          2.27676000
          1.10117800
          0.51863800
          0.20056500
          0.08129100
          0.03179500
          0.01244000
  0.0000430000 -0.0000150000  0.0000040000  0.0000040000  0.0000090000  0.0000000000  0.0000000000
  0.0003840000 -0.0001310000  0.0000320000  0.0000390000  0.0000750000  0.0000000000  0.0000000000
  0.0022100000 -0.0007550000  0.0001830000  0.0002230000  0.0004790000  0.0000000000  0.0000000000
  0.0096780000 -0.0033250000  0.0008020000  0.0009960000  0.0019060000  0.0000000000  0.0000000000
  0.0339360000 -0.0118110000  0.0028620000  0.0034980000  0.0075120000  0.0000000000  0.0000000000
  0.0959170000 -0.0342560000  0.0082870000  0.0102960000  0.0195300000  0.0000000000  0.0000000000
  0.2088530000 -0.0773630000  0.0188700000  0.0229620000  0.0504020000  0.0000000000  0.0000000000
  0.3306600000 -0.1284560000  0.0313070000  0.0392080000  0.0706850000  0.0000000000  0.0000000000
  0.3323120000 -0.1350780000  0.0336600000  0.0399430000  0.1087750000  0.0000000000  0.0000000000
  0.1581880000  0.0208380000 -0.0094790000 -0.0071210000 -0.0585360000  0.0000000000  0.0000000000
  0.0222520000  0.3204990000 -0.0923130000 -0.1162250000 -0.2154480000  0.0000000000  0.0000000000
 -0.0015650000  0.4602600000 -0.1489890000 -0.1694960000 -0.6773420000  0.0000000000  0.0000000000
 -0.0013530000  0.2953460000 -0.0836440000 -0.1553740000  0.5859790000  0.0000000000  0.0000000000
 -0.0002650000  0.0490460000  0.2493390000  0.3950220000  1.1291080000  0.0000000000  0.0000000000
  0.0000290000 -0.0038240000  0.5805150000  0.6789080000 -0.9740510000  0.0000000000  0.0000000000
 -0.0000110000  0.0015850000  0.3223800000  0.0831220000 -0.1952640000  1.0000000000  0.0000000000
  0.0000000000  0.0000000000  0.0000000000  0.0000000000  0.0000000000  0.0000000000  1.0000000000
* d-type functions
    9    5
         77.61150000
         22.91590000
          8.27954000
          3.30993000
          1.35863000
          0.54135000
          0.20235600
          0.06756800
          0.02256000
  0.0035950000 -0.0038180000  0.0060010000  0.0000000000  0.0000000000
  0.0252100000 -0.0267170000  0.0422060000  0.0000000000  0.0000000000
  0.0947860000 -0.1036900000  0.1707510000  0.0000000000  0.0000000000
  0.2303630000 -0.2476890000  0.3855180000  0.0000000000  0.0000000000
  0.3528940000 -0.3115230000  0.2062040000  0.0000000000  0.0000000000
  0.3704140000 -0.0228270000 -0.7786690000  0.0000000000  0.0000000000
  0.2457180000  0.5697260000 -0.1147210000  0.0000000000  0.0000000000
  0.0609930000  0.4194930000  0.7270620000  1.0000000000  0.0000000000
  0.0000000000  0.0000000000  0.0000000000  0.0000000000  1.0000000000
* f-type functions
    3    3
          1.77490000
          0.41250000
          0.13112000
  1.0000000000  0.0000000000  0.0000000000
  0.0000000000  1.0000000000  0.0000000000
  0.0000000000  0.0000000000  1.0000000000
* g-type functions
    2    2
          1.13680000
          0.38465000
  1.0000000000  0.0000000000
  0.0000000000  1.0000000000

/Cr.aug-cc-pVTZ.Balabanov.21s17p9d3f2g.8s7p5d3f2g.
N.B. Balabanov, K.A. Peterson. J. Chem. Phys. 123 (2005) 064107. doi:10.1063/1.1998907
CHROMIUM (21s,17p,9d,3f,2g) -> [8s,7p,5d,3f,2g]
    24.0   4
* s-type functions
   21    8
    6177194.00000000
     924929.50000000
     210486.50000000
      59620.05000000
      19450.76000000
       7022.05600000
       2738.76300000
       1135.81400000
        495.09230000
        224.74870000
        105.38360000
         50.19359000
         22.24957000
         10.98265000
          5.38366500
          2.34368500
          1.10520200
          0.48784800
          0.08959900
          0.03342300
          0.01247000
  4.1286670e-6 -2.3017720e-6  4.8629570e-7 -1.1024510e-7  2.1798930e-7 -3.6690100e-7  0.0000000000  0.0000000000
  3.2107670e-5 -1.7895360e-5  3.7766450e-6 -8.5302330e-7  1.6129400e-6 -2.7683530e-6  0.0000000000  0.0000000000
  0.0001688416 -9.4161740e-5  1.9906640e-5 -4.5203580e-6  9.1118420e-6 -1.5210140e-5  0.0000000000  0.0000000000
  0.0007128520 -0.0003975074  8.3891640e-5 -1.8916120e-5  3.5006450e-5 -6.0662880e-5  0.0000000000  0.0000000000
  0.0025893250 -0.0014470250  0.0003065706 -6.9743440e-5  0.0001435315 -0.0002374959  0.0000000000  0.0000000000
  0.0083773500 -0.0046946220  0.0009944107 -0.0002237867  0.0004035896 -0.0007077071  0.0000000000  0.0000000000
  0.0244172500 -0.0138238700  0.0029619590 -0.0006754503  0.0014251770 -0.0023343890  0.0000000000  0.0000000000
  0.0636513500 -0.0367464300  0.0079694730 -0.0017893460  0.0031140090 -0.0055550620  0.0000000000  0.0000000000
  0.1427618000 -0.0864718500  0.0195501700 -0.0044778580  0.0098144490 -0.0158514200  0.0000000000  0.0000000000
  0.2541275000 -0.1696735000  0.0408503500 -0.0091401440  0.0147469800 -0.0273788800  0.0000000000  0.0000000000
  0.3009512000 -0.2507089000  0.0692900300 -0.0161056200  0.0391151200 -0.0610697500  0.0000000000  0.0000000000
  0.1766513000 -0.1961156000  0.0614698400 -0.0133487000  0.0091708880 -0.0288722700  0.0000000000  0.0000000000
  0.0693670900  0.1457244000 -0.0698130200  0.0142602700  0.0155987800  0.0068137140  0.0000000000  0.0000000000
  0.1179579000  0.5466706000 -0.3517597000  0.0893169000 -0.2816844000  0.4327670000  0.0000000000  0.0000000000
  0.0891618700  0.3979434000 -0.3828629000  0.0888527900 -0.0068952610  0.1968410000  0.0000000000  0.0000000000
  0.0110363000  0.0527700700  0.2676401000 -0.0636877600 -0.1769781000 -0.3764657000  0.0000000000  0.0000000000
 -0.0003546048 -0.0043745370  0.7175950000 -0.2783262000  1.4430610000 -2.0524730000  0.0000000000  0.0000000000
  0.0001057311  0.0003204035  0.3020814000 -0.1830071000 -1.0293180000  2.9757410000  0.0000000000  0.0000000000
  0.0000111464 -5.1420770e-5  0.0077495140  0.6790937000 -1.3076670000 -2.2117050000  0.0000000000  0.0000000000
  2.6613870e-5  0.0001584134  0.0002696096  0.4672953000  1.5038420000  1.3701880000  1.0000000000  0.0000000000
  0.0000000000  0.0000000000  0.0000000000  0.0000000000  0.0000000000  0.0000000000  0.0000000000  1.0000000000
* p-type functions
   17    7
      14454.20000000
       3421.67600000
       1111.38700000
        425.19180000
        180.26230000
         82.06117000
         39.29726000
         19.41959000
          9.82889900
          5.01681000
          2.48709100
          1.19878000
          0.55869500
          0.20892400
          0.08460800
          0.03325800
          0.01307000
  0.0000440000 -0.0000150000  0.0000040000  0.0000040000  0.0000100000  0.0000000000  0.0000000000
  0.0003890000 -0.0001350000  0.0000320000  0.0000400000  0.0000790000  0.0000000000  0.0000000000
  0.0022410000 -0.0007770000  0.0001850000  0.0002290000  0.0005120000  0.0000000000  0.0000000000
  0.0098210000 -0.0034270000  0.0008100000  0.0010190000  0.0020230000  0.0000000000  0.0000000000
  0.0344710000 -0.0121890000  0.0029060000  0.0036020000  0.0080550000  0.0000000000  0.0000000000
  0.0974600000 -0.0353880000  0.0083910000  0.0105500000  0.0207720000  0.0000000000  0.0000000000
  0.2119850000 -0.0799150000  0.0191930000  0.0237020000  0.0542240000  0.0000000000  0.0000000000
  0.3339900000 -0.1323350000  0.0315640000  0.0399880000  0.0746850000  0.0000000000  0.0000000000
  0.3301370000 -0.1354010000  0.0334170000  0.0404370000  0.1159890000  0.0000000000  0.0000000000
  0.1522270000  0.0320080000 -0.0129070000 -0.0120740000 -0.0765840000  0.0000000000  0.0000000000
  0.0204250000  0.3338490000 -0.0936590000 -0.1189390000 -0.2439310000  0.0000000000  0.0000000000
 -0.0013600000  0.4617730000 -0.1499770000 -0.1781000000 -0.6801810000  0.0000000000  0.0000000000
 -0.0011950000  0.2812900000 -0.0672340000 -0.1238650000  0.7336640000  0.0000000000  0.0000000000
 -0.0001970000  0.0418430000  0.2707590000  0.4297220000  0.9991200000  0.0000000000  0.0000000000
  0.0000230000 -0.0040020000  0.5758070000  0.6507860000 -1.0170810000  0.0000000000  0.0000000000
 -0.0000090000  0.0015210000  0.3011210000  0.0641710000 -0.1200910000  1.0000000000  0.0000000000
  0.0000000000  0.0000000000  0.0000000000  0.0000000000  0.0000000000  0.0000000000  1.0000000000
* d-type functions
    9    5
         88.57680000
         26.20450000
          9.51747000
          3.82248000
          1.57512000
          0.62892800
          0.23442400
          0.07681500
          0.02517000
  0.0036210000 -0.0041220000  0.0059540000  0.0000000000  0.0000000000
  0.0257660000 -0.0293070000  0.0425320000  0.0000000000  0.0000000000
  0.0975560000 -0.1150620000  0.1745110000  0.0000000000  0.0000000000
  0.2363120000 -0.2730680000  0.3939000000  0.0000000000  0.0000000000
  0.3582860000 -0.3144230000  0.1492790000  0.0000000000  0.0000000000
  0.3685430000  0.0420970000 -0.8102450000  0.0000000000  0.0000000000
  0.2354940000  0.5914030000  0.0109110000  0.0000000000  0.0000000000
  0.0531560000  0.3582150000  0.7014040000  1.0000000000  0.0000000000
  0.0000000000  0.0000000000  0.0000000000  0.0000000000  1.0000000000
* f-type functions
    3    3
          2.25100000
          0.53150000
          0.17636000
  1.0000000000  0.0000000000  0.0000000000
  0.0000000000  1.0000000000  0.0000000000
  0.0000000000  0.0000000000  1.0000000000
* g-type functions
    2    2
          1.44590000
          0.51329000
  1.0000000000  0.0000000000
  0.0000000000  1.0000000000

/Mn.aug-cc-pVTZ.Balabanov.21s17p9d3f2g.8s7p5d3f2g.
N.B. Balabanov, K.A. Peterson. J. Chem. Phys. 123 (2005) 064107. doi:10.1063/1.1998907
MANGANESE (21s,17p,9d,3f,2g) -> [8s,7p,5d,3f,2g]
    25.0   4
* s-type functions
   21    8
    3960805.00000000
     593115.50000000
     134976.80000000
      38230.67000000
      12471.54000000
       4501.74300000
       1755.21200000
        727.30390000
        316.36780000
        143.00980000
         66.21805000
         29.91896000
         14.30318000
          6.83945100
          3.01237400
          1.41880800
          0.62362400
          0.13409800
          0.06554800
          0.02958400
          0.01335000
  8.2421270e-6 -3.9360950e-6  9.4627090e-7 -2.0953910e-7 -4.1212310e-7 -6.8054930e-7  0.0000000000  0.0000000000
  6.4085870e-5 -3.0604810e-5  7.3605840e-6 -1.6294390e-6 -3.2820990e-6 -5.4605160e-6  0.0000000000  0.0000000000
  0.0003369253 -0.0001609626  3.8699350e-5 -8.5705920e-6 -1.6674330e-5 -2.7438930e-5  0.0000000000  0.0000000000
  0.0014206480 -0.0006792348  0.0001635110 -3.6192720e-5 -7.3699990e-5 -0.0001230291  0.0000000000  0.0000000000
  0.0051436830 -0.0024661820  0.0005941775 -0.0001316146 -0.0002529495 -0.0004146269  0.0000000000  0.0000000000
  0.0164856900 -0.0079576290  0.0019277370 -0.0004266810 -0.0008801425 -0.0014751510  0.0000000000  0.0000000000
  0.0469856000 -0.0230724800  0.0056417310 -0.0012502700 -0.0023654820 -0.0038591400  0.0000000000  0.0000000000
  0.1162437000 -0.0593295600  0.0148784800 -0.0032946650 -0.0069263540 -0.0116840500  0.0000000000  0.0000000000
  0.2335277000 -0.1299451000  0.0341478300 -0.0075818600 -0.0139385100 -0.0225718500  0.0000000000  0.0000000000
  0.3292837000 -0.2212352000  0.0640579400 -0.0142286400 -0.0314384000 -0.0539975900  0.0000000000  0.0000000000
  0.2440304000 -0.2292550000  0.0755765900 -0.0169379600 -0.0262574900 -0.0403235100  0.0000000000  0.0000000000
  0.0721980600  0.0358073300 -0.0194607000  0.0044542980 -0.0104831300 -0.0274252600  0.0000000000  0.0000000000
  0.0768780600  0.5107602000 -0.2957874000  0.0686704200  0.1856472000  0.3485593000  0.0000000000  0.0000000000
  0.0785223500  0.5008307000 -0.4521170000  0.1113335000  0.1524839000  0.2757818000  0.0000000000  0.0000000000
  0.0129410900  0.0901183000  0.1224531000 -0.0390082000  0.0741136800 -0.0549981200  0.0000000000  0.0000000000
 -0.0003784873 -0.0069099090  0.7169756000 -0.2215755000 -1.0180970000 -2.2925450000  0.0000000000  0.0000000000
 -2.5032030e-5 -0.0001912925  0.4092712000 -0.2544359000  0.2980372000  2.6356440000  0.0000000000  0.0000000000
 -2.4215170e-5 -0.0006032312  0.0222196900  0.2865866000  1.9719890000 -0.3379113000  0.0000000000  0.0000000000
  3.4620710e-5  0.0005621608 -0.0090112020  0.5755741000 -1.1792530000 -1.7896070000  0.0000000000  0.0000000000
  4.2614820e-7 -0.0001021109  0.0036917270  0.2898778000 -0.5837703000  1.6289360000  1.0000000000  0.0000000000
  0.0000000000  0.0000000000  0.0000000000  0.0000000000  0.0000000000  0.0000000000  0.0000000000  1.0000000000
* p-type functions
   17    7
      16205.86000000
       3836.27400000
       1246.04800000
        476.75350000
        202.18950000
         92.09487000
         44.14720000
         21.85468000
         11.08596000
          5.67410800
          2.82317000
          1.36862100
          0.64443100
          0.24838200
          0.09725500
          0.03663300
          0.01380000
  0.0000420000 -0.0000150000  0.0000030000  0.0000040000  0.0000100000  0.0000000000  0.0000000000
  0.0003730000 -0.0001290000  0.0000300000  0.0000400000  0.0000810000  0.0000000000  0.0000000000
  0.0021490000 -0.0007480000  0.0001720000  0.0002260000  0.0005120000  0.0000000000  0.0000000000
  0.0094450000 -0.0033080000  0.0007620000  0.0010130000  0.0020710000  0.0000000000  0.0000000000
  0.0332970000 -0.0118110000  0.0027260000  0.0035750000  0.0081110000  0.0000000000  0.0000000000
  0.0947590000 -0.0345330000  0.0079760000  0.0106120000  0.0215570000  0.0000000000  0.0000000000
  0.2081440000 -0.0787850000  0.0182870000  0.0239020000  0.0553160000  0.0000000000  0.0000000000
  0.3318050000 -0.1321830000  0.0307760000  0.0412790000  0.0802630000  0.0000000000  0.0000000000
  0.3331750000 -0.1371950000  0.0323730000  0.0414750000  0.1177300000  0.0000000000  0.0000000000
  0.1576010000  0.0270750000 -0.0099780000 -0.0094580000 -0.0650690000  0.0000000000  0.0000000000
  0.0214450000  0.3288910000 -0.0905290000 -0.1236950000 -0.2829140000  0.0000000000  0.0000000000
 -0.0025580000  0.4572800000 -0.1380040000 -0.1743920000 -0.6491660000  0.0000000000  0.0000000000
 -0.0020270000  0.2889080000 -0.0779650000 -0.1291700000  0.6925670000  0.0000000000  0.0000000000
 -0.0003600000  0.0474330000  0.2295600000  0.4003480000  0.9789900000  0.0000000000  0.0000000000
  0.0000340000 -0.0035220000  0.5761220000  0.6696460000 -0.9213570000  0.0000000000  0.0000000000
 -0.0000130000  0.0014560000  0.3485380000  0.0827320000 -0.1699150000  1.0000000000  0.0000000000
  0.0000000000  0.0000000000  0.0000000000  0.0000000000  0.0000000000  0.0000000000  1.0000000000
* d-type functions
    9    5
        100.66300000
         29.83360000
         10.88940000
          4.39358000
          1.81782000
          0.72782700
          0.27129500
          0.08830900
          0.02875000
  0.0035790000 -0.0034540000  0.0056850000  0.0000000000  0.0000000000
  0.0258270000 -0.0249250000  0.0411710000  0.0000000000  0.0000000000
  0.0985590000 -0.0976350000  0.1693220000  0.0000000000  0.0000000000
  0.2383270000 -0.2366920000  0.3859120000  0.0000000000  0.0000000000
  0.3587070000 -0.2923500000  0.1869090000  0.0000000000  0.0000000000
  0.3650920000 -0.0049730000 -0.6781130000  0.0000000000  0.0000000000
  0.2337380000  0.5065880000 -0.2582600000  0.0000000000  0.0000000000
  0.0566180000  0.4979510000  0.7679850000  1.0000000000  0.0000000000
  0.0000000000  0.0000000000  0.0000000000  0.0000000000  1.0000000000
* f-type functions
    3    3
          2.73820000
          0.65430000
          0.22260000
  1.0000000000  0.0000000000  0.0000000000
  0.0000000000  1.0000000000  0.0000000000
  0.0000000000  0.0000000000  1.0000000000
* g-type functions
    2    2
          1.73350000
          0.63213000
  1.0000000000  0.0000000000
  0.0000000000  1.0000000000

/Fe.aug-cc-pVTZ.Balabanov.21s17p9d3f2g.8s7p5d3f2g.
N.B. Balabanov, K.A. Peterson. J. Chem. Phys. 123 (2005) 064107. doi:10.1063/1.1998907
IRON (21s,17p,9d,3f,2g) -> [8s,7p,5d,3f,2g]
    26.0   4
* s-type functions
   21    8
    4316265.00000000
     646342.40000000
     147089.70000000
      41661.52000000
      13590.77000000
       4905.75000000
       1912.74600000
        792.60430000
        344.80650000
        155.89990000
         72.23091000
         32.72506000
         15.66762000
          7.50348300
          3.31222300
          1.55847100
          0.68391400
          0.14675700
          0.07058300
          0.03144900
          0.01401000
  8.0488030e-6 -4.1559540e-6  9.5321780e-7 -2.0630080e-7 -4.0093670e-7 -6.9660420e-7  0.0000000000  0.0000000000
  6.2583060e-5 -3.2314010e-5  7.4146050e-6 -1.6041690e-6 -3.1892550e-6 -5.5680360e-6  0.0000000000  0.0000000000
  0.0003290239 -0.0001699525  3.8983930e-5 -8.4384370e-6 -1.6230790e-5 -2.8136840e-5  0.0000000000  0.0000000000
  0.0013873550 -0.0007171369  0.0001647152 -3.5631510e-5 -0.0000715792 -0.0001252418  0.0000000000  0.0000000000
  0.0050232560 -0.0026036250  0.0005985980 -0.0001295998 -0.0002463958 -0.0004260787  0.0000000000  0.0000000000
  0.0161014000 -0.0083991090  0.0019423900 -0.0004201534 -0.0008544907 -0.0014990600  0.0000000000  0.0000000000
  0.0459003400 -0.0243410900  0.0056872370 -0.0012319540 -0.0023075930 -0.0039791030  0.0000000000  0.0000000000
  0.1136154000 -0.0625194800  0.0150132900 -0.0032489220 -0.0067282920 -0.0118568600  0.0000000000  0.0000000000
  0.2283869000 -0.1365929000  0.0345245500 -0.0074937170 -0.0136616500 -0.0234673400  0.0000000000  0.0000000000
  0.3221159000 -0.2312707000  0.0649582000 -0.0141010200 -0.0306224000 -0.0546773600  0.0000000000  0.0000000000
  0.2383661000 -0.2383734000  0.0771619400 -0.0169160000 -0.0263113700 -0.0439382000  0.0000000000  0.0000000000
  0.0740466700  0.0312383700 -0.0187341100  0.0042189960 -0.0097601830 -0.0237610300  0.0000000000  0.0000000000
[...]
  0.0002774000 -0.0000866000  0.0000337000 -0.0000093000  0.0000000000  0.0000000000  0.0000000000
  0.0011702000 -0.0003653000  0.0001423000 -0.0000392000  0.0000000000  0.0000000000  0.0000000000
  0.0042421000 -0.0013309000  0.0005188000 -0.0001429000  0.0000000000  0.0000000000  0.0000000000
  0.0136557000 -0.0043093000  0.0016802000 -0.0004629000  0.0000000000  0.0000000000  0.0000000000
  0.0393399000 -0.0126973000  0.0049677000 -0.0013687000  0.0000000000  0.0000000000  0.0000000000
  0.0999292000 -0.0336160000  0.0132115000 -0.0036440000  0.0000000000  0.0000000000  0.0000000000
  0.2121555000 -0.0789470000  0.0314566000 -0.0086884000  0.0000000000  0.0000000000  0.0000000000
  0.3363866000 -0.1514458000  0.0618446000 -0.0171556000  0.0000000000  0.0000000000  0.0000000000
  0.3155125000 -0.2042014000  0.0879566000 -0.0245514000  0.0000000000  0.0000000000  0.0000000000
  0.1181312000 -0.0557367000  0.0257548000 -0.0073524000  0.0000000000  0.0000000000  0.0000000000
  0.0080076000  0.4187607000 -0.2455459000  0.0720087000  0.0000000000  0.0000000000  0.0000000000
  0.0003293000  0.5758762000 -0.5090572000  0.1576254000  0.0000000000  0.0000000000  0.0000000000
 -0.0001523000  0.1696842000 -0.0555749000  0.0142074000  0.0000000000  0.0000000000  0.0000000000
  0.0000247000  0.0060662000  0.7083796000 -0.2851593000  0.0000000000  0.0000000000  0.0000000000
 -0.0000366000  0.0017605000  0.5231027000 -0.3885347000  0.0000000000  0.0000000000  0.0000000000
  0.0000145000 -0.0003660000  0.0348176000  0.2691061000  1.0000000000  0.0000000000  0.0000000000
 -0.0000094000  0.0002316000 -0.0111176000  0.6495337000  0.0000000000  0.0000000000  0.0000000000
  0.0000026000 -0.0000661000  0.0023636000  0.2974047000  0.0000000000  1.0000000000  0.0000000000
  0.0000000000  0.0000000000  0.0000000000  0.0000000000  0.0000000000  0.0000000000  1.0000000000
* p-type functions
   14    6
       7423.86100000
       1759.51700000
        570.22920000
        216.58000000
         90.73425000
         40.30879000
         18.55550000
          8.39654300
          3.76736700
          1.62970100
          0.56826300
          0.22250300
          0.08040500
          0.02679900
  0.0004599000 -0.0001794000  0.0000399000  0.0000000000  0.0000000000  0.0000000000
  0.0039823000 -0.0015641000  0.0003488000  0.0000000000  0.0000000000  0.0000000000
  0.0214638000 -0.0084999000  0.0018953000  0.0000000000  0.0000000000  0.0000000000
  0.0824617000 -0.0336327000  0.0075325000  0.0000000000  0.0000000000  0.0000000000
  0.2238902000 -0.0953228000  0.0214315000  0.0000000000  0.0000000000  0.0000000000
  0.3920704000 -0.1793626000  0.0407807000  0.0000000000  0.0000000000  0.0000000000
  0.3542238000 -0.1466682000  0.0325249000  0.0000000000  0.0000000000  0.0000000000
  0.1048641000  0.1966016000 -0.0548832000  0.0000000000  0.0000000000  0.0000000000
  0.0033664000  0.5372088000 -0.1511922000  0.0000000000  0.0000000000  0.0000000000
  0.0018495000  0.3857361000 -0.1249011000  0.0000000000  0.0000000000  0.0000000000
 -0.0004496000  0.0470947000  0.2089154000  1.0000000000  0.0000000000  0.0000000000
  0.0002297000 -0.0054006000  0.5855293000  0.0000000000  0.0000000000  0.0000000000
 -0.0000719000  0.0015305000  0.3644660000  0.0000000000  1.0000000000  0.0000000000
  0.0000000000  0.0000000000  0.0000000000  0.0000000000  0.0000000000  1.0000000000
* d-type functions
   10    4
        321.01960000
         96.24931000
         36.64496000
         15.49396000
          6.89113800
          3.05483100
          1.31424100
          0.51343000
          0.18770000
          0.07000000
  0.0016840000  0.0000000000  0.0000000000  0.0000000000
  0.0141586000  0.0000000000  0.0000000000  0.0000000000
  0.0628259000  0.0000000000  0.0000000000  0.0000000000
  0.1784993000  0.0000000000  0.0000000000  0.0000000000
  0.3209452000  0.0000000000  0.0000000000  0.0000000000
  0.3773515000  0.0000000000  0.0000000000  0.0000000000
  0.2750231000  0.0000000000  0.0000000000  0.0000000000
  0.0828834000  1.0000000000  0.0000000000  0.0000000000
  0.0000000000  0.0000000000  1.0000000000  0.0000000000
  0.0000000000  0.0000000000  0.0000000000  1.0000000000
* f-type functions
    2    2
          0.41580000
          0.16900000
  1.0000000000  0.0000000000
  0.0000000000  1.0000000000

/Se.aug-cc-pVTZ.Wilson.21s14p10d2f.7s6p4d2f.
A.K. Wilson, D.E. Woon, K.A. Peterson, T.H. Dunning. J. Chem. Phys. 110 (1999) 7667-7676. doi:10.1063/1.478678
SELENIUM (21s,14p,10d,2f) -> [7s,6p,4d,2f]
    34.0   3
* s-type functions
   21    7
    9563600.00000000
    1432100.00000000
     325910.00000000
      92312.00000000
      30116.00000000
      10872.00000000
       4240.10000000
       1758.40000000
        766.59000000
        348.43000000
        164.03000000
         79.14200000
         35.52400000
         17.30500000
          8.37840000
          3.74050000
          1.68900000
          0.50927000
          0.25520000
          0.10651000
          0.03920100
  0.0000063000 -0.0000020000  0.0000008000 -0.0000002000  0.0000000000  0.0000000000  0.0000000000
  0.0000489000 -0.0000153000  0.0000060000 -0.0000018000  0.0000000000  0.0000000000  0.0000000000
  0.0002574000 -0.0000806000  0.0000317000 -0.0000093000  0.0000000000  0.0000000000  0.0000000000
  0.0010861000 -0.0003400000  0.0001337000 -0.0000391000  0.0000000000  0.0000000000  0.0000000000
  0.0039399000 -0.0012397000  0.0004883000 -0.0001428000  0.0000000000  0.0000000000  0.0000000000
  0.0127041000 -0.0040177000  0.0015821000 -0.0004627000  0.0000000000  0.0000000000  0.0000000000
  0.0367156000 -0.0118672000  0.0046919000 -0.0013722000  0.0000000000  0.0000000000  0.0000000000
  0.0938672000 -0.0315340000  0.0125098000 -0.0036628000  0.0000000000  0.0000000000  0.0000000000
  0.2017677000 -0.0746439000  0.0300381000 -0.0088061000  0.0000000000  0.0000000000  0.0000000000
  0.3280540000 -0.1452179000  0.0597271000 -0.0175867000  0.0000000000  0.0000000000  0.0000000000
  0.3238334000 -0.2038441000  0.0884696000 -0.0262074000  0.0000000000  0.0000000000  0.0000000000
  0.1352337000 -0.0788711000  0.0363920000 -0.0109964000  0.0000000000  0.0000000000  0.0000000000
  0.0117075000  0.3845825000 -0.2235329000  0.0695697000  0.0000000000  0.0000000000  0.0000000000
 -0.0003436000  0.5865270000 -0.5122462000  0.1683947000  0.0000000000  0.0000000000  0.0000000000
  0.0001665000  0.1973591000 -0.1084224000  0.0346160000  0.0000000000  0.0000000000  0.0000000000
 -0.0001188000  0.0100102000  0.6936372000 -0.2978702000  0.0000000000  0.0000000000  0.0000000000
  0.0000204000  0.0013160000  0.5558711000 -0.4322569000  0.0000000000  0.0000000000  0.0000000000
 -0.0000117000 -0.0002101000  0.0409806000  0.2631611000  1.0000000000  0.0000000000  0.0000000000
  0.0000083000  0.0001109000 -0.0113832000  0.6757217000  0.0000000000  0.0000000000  0.0000000000
 -0.0000019000 -0.0000380000  0.0024256000  0.2956495000  0.0000000000  1.0000000000  0.0000000000
  0.0000000000  0.0000000000  0.0000000000  0.0000000000  0.0000000000  0.0000000000  1.0000000000
* p-type functions
   14    6
       8004.30000000
       1896.90000000
        614.71000000
        233.50000000
         97.85600000
         43.51400000
         20.06300000
          9.11270000
          4.10630000
          1.79490000
          0.62432000
          0.24615000
          0.08891700
          0.03025100
  0.0004505000 -0.0001783000  0.0000430000  0.0000000000  0.0000000000  0.0000000000
  0.0039049000 -0.0015554000  0.0003770000  0.0000000000  0.0000000000  0.0000000000
  0.0210901000 -0.0084727000  0.0020465000  0.0000000000  0.0000000000  0.0000000000
  0.0812920000 -0.0336245000  0.0081899000  0.0000000000  0.0000000000  0.0000000000
  0.2217841000 -0.0958267000  0.0233356000  0.0000000000  0.0000000000  0.0000000000
  0.3907270000 -0.1813907000  0.0449813000  0.0000000000  0.0000000000  0.0000000000
  0.3559714000 -0.1503152000  0.0357475000  0.0000000000  0.0000000000  0.0000000000
  0.1073272000  0.1948263000 -0.0586866000  0.0000000000  0.0000000000  0.0000000000
  0.0036985000  0.5415554000 -0.1709573000  0.0000000000  0.0000000000  0.0000000000
  0.0018032000  0.3837299000 -0.1293583000  0.0000000000  0.0000000000  0.0000000000
 -0.0004501000  0.0444232000  0.2647063000  1.0000000000  0.0000000000  0.0000000000
  0.0002208000 -0.0050132000  0.5778069000  0.0000000000  0.0000000000  0.0000000000
 -0.0000722000  0.0016879000  0.3275508000  0.0000000000  1.0000000000  0.0000000000
  0.0000000000  0.0000000000  0.0000000000  0.0000000000  0.0000000000  1.0000000000
* d-type functions
   10    4
        361.85000000
        108.55000000
         41.43300000
         17.57900000
          7.86270000
          3.51800000
          1.53480000
          0.60813000
          0.22200000
          0.08370000
  0.0015655000  0.0000000000  0.0000000000  0.0000000000
  0.0133262000  0.0000000000  0.0000000000  0.0000000000
  0.0601527000  0.0000000000  0.0000000000  0.0000000000
  0.1740293000  0.0000000000  0.0000000000  0.0000000000
  0.3195690000  0.0000000000  0.0000000000  0.0000000000
  0.3812029000  0.0000000000  0.0000000000  0.0000000000
  0.2746086000  0.0000000000  0.0000000000  0.0000000000
  0.0782551000  1.0000000000  0.0000000000  0.0000000000
  0.0000000000  0.0000000000  1.0000000000  0.0000000000
  0.0000000000  0.0000000000  0.0000000000  1.0000000000
* f-type functions
    2    2
          0.46200000
          0.18800000
  1.0000000000  0.0000000000
  0.0000000000  1.0000000000

/Br.aug-cc-pVTZ.Wilson.21s14p10d2f.7s6p4d2f.
A.K. Wilson, D.E. Woon, K.A. Peterson, T.H. Dunning. J. Chem. Phys. 110 (1999) 7667-7676. doi:10.1063/1.478678
BROMINE (21s,14p,10d,2f) -> [7s,6p,4d,2f]
    35.0   3
* s-type functions
   21    7
   10639000.00000000
    1593400.00000000
     362610.00000000
     102700.00000000
      33501.00000000
      12093.00000000
       4715.90000000
       1955.60000000
        852.61000000
        387.67000000
        182.68000000
         88.24500000
         39.26300000
         19.23400000
          9.40570000
          4.16010000
          1.89950000
          0.60472000
          0.30114000
          0.12515000
          0.04559300
  0.0000059000 -0.0000019000  0.0000007000 -0.0000002000  0.0000000000  0.0000000000  0.0000000000
  0.0000461000 -0.0000145000  0.0000057000 -0.0000018000  0.0000000000  0.0000000000  0.0000000000
  0.0002422000 -0.0000761000  0.0000303000 -0.0000093000  0.0000000000  0.0000000000  0.0000000000
  0.0010226000 -0.0003210000  0.0001275000 -0.0000391000  0.0000000000  0.0000000000  0.0000000000
  0.0037113000 -0.0011709000  0.0004659000 -0.0001428000  0.0000000000  0.0000000000  0.0000000000
  0.0119785000 -0.0037968000  0.0015096000 -0.0004628000  0.0000000000  0.0000000000  0.0000000000
  0.0346927000 -0.0112307000  0.0044852000 -0.0013750000  0.0000000000  0.0000000000  0.0000000000
  0.0891239000 -0.0299277000  0.0119835000 -0.0036784000  0.0000000000  0.0000000000  0.0000000000
  0.1934557000 -0.0712706000  0.0289571000 -0.0088981000  0.0000000000  0.0000000000  0.0000000000
  0.3209019000 -0.1403136000  0.0581566000 -0.0179529000  0.0000000000  0.0000000000  0.0000000000
  0.3299233000 -0.2030763000  0.0888133000 -0.0275732000  0.0000000000  0.0000000000  0.0000000000
  0.1494121000 -0.0960985000  0.0445244000 -0.0140953000  0.0000000000  0.0000000000  0.0000000000
  0.0149938000  0.3558086000 -0.2060387000  0.0672561000  0.0000000000  0.0000000000  0.0000000000
 -0.0009165000  0.5921792000 -0.5127017000  0.1766928000  0.0000000000  0.0000000000  0.0000000000
  0.0004380000  0.2215977000 -0.1509349000  0.0528861000  0.0000000000  0.0000000000  0.0000000000
 -0.0002398000  0.0137648000  0.6789203000 -0.3075955000  0.0000000000  0.0000000000  0.0000000000
  0.0000736000  0.0008395000  0.5817697000 -0.4700658000  0.0000000000  0.0000000000  0.0000000000
 -0.0000367000 -0.0000451000  0.0467555000  0.2558761000  1.0000000000  0.0000000000  0.0000000000
  0.0000239000 -0.0000085000 -0.0111825000  0.6980341000  0.0000000000  0.0000000000  0.0000000000
 -0.0000056000 -0.0000124000  0.0024402000  0.2967256000  0.0000000000  1.0000000000  0.0000000000
  0.0000000000  0.0000000000  0.0000000000  0.0000000000  0.0000000000  0.0000000000  1.0000000000
* p-type functions
   14    6
       8676.50000000
       2055.90000000
        666.23000000
        253.10000000
        106.12000000
         47.24200000
         21.82500000
          9.96840000
          4.51710000
          1.99820000
          0.70988000
          0.28145000
          0.10204000
          0.03514200
  0.0004357000 -0.0001748000  0.0000451000  0.0000000000  0.0000000000  0.0000000000
  0.0037815000 -0.0015263000  0.0003964000  0.0000000000  0.0000000000  0.0000000000
  0.0204782000 -0.0083399000  0.0021555000  0.0000000000  0.0000000000  0.0000000000
  0.0792834000 -0.0332203000  0.0086720000  0.0000000000  0.0000000000  0.0000000000
  0.2178473000 -0.0954180000  0.0248680000  0.0000000000  0.0000000000  0.0000000000
  0.3878585000 -0.1824026000  0.0485472000  0.0000000000  0.0000000000  0.0000000000
  0.3594350000 -0.1558308000  0.0396156000  0.0000000000  0.0000000000  0.0000000000
  0.1121995000  0.1867899000 -0.0605749000  0.0000000000  0.0000000000  0.0000000000
  0.0043874000  0.5427733000 -0.1871699000  0.0000000000  0.0000000000  0.0000000000
  0.0017809000  0.3873309000 -0.1377757000  0.0000000000  0.0000000000  0.0000000000
 -0.0004576000  0.0453069000  0.2928021000  1.0000000000  0.0000000000  0.0000000000
  0.0002122000 -0.0043784000  0.5760896000  0.0000000000  0.0000000000  0.0000000000
 -0.0000734000  0.0018111000  0.3078617000  0.0000000000  1.0000000000  0.0000000000
  0.0000000000  0.0000000000  0.0000000000  0.0000000000  0.0000000000  1.0000000000
* d-type functions
   10    4
        403.83000000
        121.17000000
         46.34500000
         19.72100000
          8.86240000
          3.99620000
          1.76360000
          0.70619000
          0.26390000
          0.10470000
  0.0014732000  0.0000000000  0.0000000000  0.0000000000
  0.0126725000  0.0000000000  0.0000000000  0.0000000000
  0.0580451000  0.0000000000  0.0000000000  0.0000000000
  0.1705103000  0.0000000000  0.0000000000  0.0000000000
  0.3185958000  0.0000000000  0.0000000000  0.0000000000
  0.3845023000  0.0000000000  0.0000000000  0.0000000000
  0.2737737000  0.0000000000  0.0000000000  0.0000000000
  0.0743967000  1.0000000000  0.0000000000  0.0000000000
  0.0000000000  0.0000000000  1.0000000000  0.0000000000
  0.0000000000  0.0000000000  0.0000000000  1.0000000000
* f-type functions
    2    2
          0.55150000
          0.25800000
  1.0000000000  0.0000000000
  0.0000000000  1.0000000000

/Kr.aug-cc-pVTZ.Wilson.21s14p10d2f.7s6p4d2f.
A.K. Wilson, D.E. Woon, K.A. Peterson, T.H. Dunning. J. Chem. Phys. 110 (1999) 7667-7676. doi:10.1063/1.478678
KRYPTON (21s,14p,10d,2f) -> [7s,6p,4d,2f]
    36.0   3
* s-type functions
   21    7
   11718110.00000000
    1754604.00000000
     399281.30000000
     113084.60000000
      36885.93000000
      13312.21000000
       5189.98800000
       2151.66000000
        938.03250000
        426.55730000
        201.06660000
         97.09761000
         42.99872000
         21.17707000
         10.42675000
          4.58500800
          2.11760300
          0.70705700
          0.34922500
          0.14482100
          0.05198500
  0.0000056000 -0.0000018000  0.0000007000 -0.0000002000  0.0000000000  0.0000000000  0.0000000000
  0.0000438000 -0.0000138000  0.0000055000 -0.0000018000  0.0000000000  0.0000000000  0.0000000000
  0.0002305000 -0.0000726000  0.0000292000 -0.0000093000  0.0000000000  0.0000000000  0.0000000000
  0.0009733000 -0.0003063000  0.0001228000 -0.0000391000  0.0000000000  0.0000000000  0.0000000000
  0.0035337000 -0.0011177000  0.0004491000 -0.0001430000  0.0000000000  0.0000000000  0.0000000000
  0.0114167000 -0.0036270000  0.0014557000 -0.0004639000  0.0000000000  0.0000000000  0.0000000000
  0.0331325000 -0.0107432000  0.0043319000 -0.0013801000  0.0000000000  0.0000000000  0.0000000000
  0.0854464000 -0.0286992000  0.0115965000 -0.0037001000  0.0000000000  0.0000000000  0.0000000000
  0.1869124000 -0.0686679000  0.0281585000 -0.0089921000  0.0000000000  0.0000000000  0.0000000000
  0.3149761000 -0.1365155000  0.0570339000 -0.0183021000  0.0000000000  0.0000000000  0.0000000000
  0.3343334000 -0.2022458000  0.0891356000 -0.0287559000  0.0000000000  0.0000000000  0.0000000000
  0.1608810000 -0.1090569000  0.0508421000 -0.0167324000  0.0000000000  0.0000000000  0.0000000000
  0.0178435000  0.3318768000 -0.1921030000  0.0652410000  0.0000000000  0.0000000000  0.0000000000
 -0.0013793000  0.5948250000 -0.5121040000  0.1834422000  0.0000000000  0.0000000000  0.0000000000
  0.0006572000  0.2424825000 -0.1857007000  0.0692183000  0.0000000000  0.0000000000  0.0000000000
 -0.0003388000  0.0172241000  0.6654119000 -0.3156034000  0.0000000000  0.0000000000  0.0000000000
  0.0001211000  0.0003685000  0.6023925000 -0.5031501000  0.0000000000  0.0000000000  0.0000000000
 -0.0000589000  0.0001104000  0.0521707000  0.2490072000  1.0000000000  0.0000000000  0.0000000000
  0.0000366000 -0.0001153000 -0.0106453000  0.7171571000  0.0000000000  0.0000000000  0.0000000000
 -0.0000086000  0.0000090000  0.0024226000  0.2987456000  0.0000000000  1.0000000000  0.0000000000
  0.0000000000  0.0000000000  0.0000000000  0.0000000000  0.0000000000  0.0000000000  1.0000000000
* p-type functions
   14    6
       9366.30900000
       2219.55400000
        719.45290000
        273.46450000
        114.75230000
         51.15557000
         23.68268000
         10.87548000
          4.95513100
          2.21726700
          0.80641000
          0.32215400
          0.11761900
          0.04003300
  0.0004231000 -0.0001720000  0.0000466000  0.0000000000  0.0000000000  0.0000000000
  0.0036743000 -0.0015025000  0.0004100000  0.0000000000  0.0000000000  0.0000000000
  0.0199312000 -0.0082269000  0.0022328000  0.0000000000  0.0000000000  0.0000000000
  0.0774222000 -0.0328566000  0.0090144000  0.0000000000  0.0000000000  0.0000000000
  0.2140386000 -0.0950135000  0.0260115000  0.0000000000  0.0000000000  0.0000000000
  0.3848556000 -0.1833106000  0.0513340000  0.0000000000  0.0000000000  0.0000000000
  0.3626340000 -0.1612161000  0.0430929000  0.0000000000  0.0000000000  0.0000000000
  0.1170818000  0.1787644000 -0.0615040000  0.0000000000  0.0000000000  0.0000000000
  0.0051210000  0.5437885000 -0.2003424000  0.0000000000  0.0000000000  0.0000000000
  0.0017539000  0.3913387000 -0.1457364000  0.0000000000  0.0000000000  0.0000000000
 -0.0004573000  0.0462570000  0.3112161000  1.0000000000  0.0000000000  0.0000000000
  0.0002199000 -0.0047800000  0.5764581000  0.0000000000  0.0000000000  0.0000000000
 -0.0000668000  0.0013923000  0.2939391000  0.0000000000  1.0000000000  0.0000000000
  0.0000000000  0.0000000000  0.0000000000  0.0000000000  0.0000000000  1.0000000000
* d-type functions
   10    4
        446.16130000
        133.96480000
         51.34591000
         21.91691000
          9.89372500
          4.49252700
          2.00229300
          0.80840900
          0.30060000
          0.12570000
  0.0014044000  0.0000000000  0.0000000000  0.0000000000
  0.0121715000  0.0000000000  0.0000000000  0.0000000000
  0.0563919000  0.0000000000  0.0000000000  0.0000000000
  0.1676430000  0.0000000000  0.0000000000  0.0000000000
  0.3177368000  0.0000000000  0.0000000000  0.0000000000
  0.3872647000  0.0000000000  0.0000000000  0.0000000000
  0.2728006000  0.0000000000  0.0000000000  0.0000000000
  0.0712084000  1.0000000000  0.0000000000  0.0000000000
  0.0000000000  0.0000000000  1.0000000000  0.0000000000
  0.0000000000  0.0000000000  0.0000000000  1.0000000000
* f-type functions
    2    2
          0.66220000
          0.32800000
  1.0000000000  0.0000000000
  0.0000000000  1.0000000000
