************************************************************************
* This file is part of OpenMolcas.                                     *
*                                                                      *
* OpenMolcas is free software; you can redistribute it and/or modify   *
* it under the terms of the GNU Lesser General Public License, v. 2.1. *
* OpenMolcas is distributed in the hope that it will be useful, but it *
* is provided "as is" and without any express or implied warranties.   *
* For more details see the full text of the license in the file        *
* LICENSE or in <http://www.gnu.org/licenses/>.                        *
************************************************************************

#Hamiltonian DKH
#Nucleus UNK
#Contraction CCC
#AllElectron AE_

************************************************************************
* This file has been generated from Basis Set Exchange data:           *
*   https://www.basissetexchange.org                                   *
* Version: 0  (Data from the Original Basis Set Exchange)              *
************************************************************************

/H.cc-pVDZ-DK.de_Jong.4s1p.2s1p.
W.A. de Jong, R.J. Harrison, D.A. Dixon. J. Chem. Phys. 114 (2001) 48. doi:10.1063/1.1329891
HYDROGEN (4s,1p) -> [2s,1p]
     1.0   1
* s-type functions
    4    2
         13.01000000
          1.96200000
          0.44460000
          0.12200000
  0.0196977000  0.0000000000
  0.1379911000  0.0000000000
  0.4781418000  0.0000000000
  0.5012326000  1.0000000000
* p-type functions
    1    1
          0.72700000
  1.0000000000

/He.cc-pVDZ-DK.de_Jong.4s1p.2s1p.
W.A. de Jong, R.J. Harrison, D.A. Dixon. J. Chem. Phys. 114 (2001) 48. doi:10.1063/1.1329891
HELIUM (4s,1p) -> [2s,1p]
     2.0   1
* s-type functions
    4    2
         38.36000000
          5.77000000
          1.24000000
          0.29760000
  0.0238545000  0.0000000000
  0.1549249000  0.0000000000
  0.4699567000  0.0000000000
  0.5130223000  1.0000000000
* p-type functions
    1    1
          1.27500000
  1.0000000000

/Li.cc-pVDZ-DK.de_Jong.9s4p1d.3s2p1d.
W.A. de Jong, R.J. Harrison, D.A. Dixon. J. Chem. Phys. 114 (2001) 48. doi:10.1063/1.1329891
LITHIUM (9s,4p,1d) -> [3s,2p,1d]
     3.0   2
* s-type functions
    9    3
       1469.00000000
        220.50000000
         50.26000000
         14.24000000
          4.58100000
          1.58000000
          0.56400000
          0.07345000
          0.02805000
  0.0008088000 -0.0001265000  0.0000000000
  0.0059351000 -0.0009296000  0.0000000000
  0.0297426000 -0.0047009000  0.0000000000
  0.1092518000 -0.0176977000  0.0000000000
  0.2828208000 -0.0489110000  0.0000000000
  0.4530721000 -0.0960241000  0.0000000000
  0.2747044000 -0.1363226000  0.0000000000
  0.0097522000  0.5752286000  0.0000000000
 -0.0031808000  0.5175239000  1.0000000000
* p-type functions
    4    2
          1.53400000
          0.27490000
          0.07362000
          0.02403000
  0.0227857000  0.0000000000
  0.1391025000  0.0000000000
  0.5003752000  0.0000000000
  0.5084759000  1.0000000000
* d-type functions
    1    1
          0.12390000
  1.0000000000

/Be.cc-pVDZ-DK.de_Jong.9s4p1d.3s2p1d.
W.A. de Jong, R.J. Harrison, D.A. Dixon. J. Chem. Phys. 114 (2001) 48. doi:10.1063/1.1329891
BERYLLIUM (9s,4p,1d) -> [3s,2p,1d]
     4.0   2
* s-type functions
    9    3
       2940.00000000
        441.20000000
        100.50000000
         28.43000000
          9.16900000
          3.19600000
          1.15900000
          0.18110000
          0.05890000
  0.0007540000 -0.0001366000  0.0000000000
  0.0053133000 -0.0009801000  0.0000000000
  0.0267325000 -0.0048561000  0.0000000000
  0.1001318000 -0.0193487000  0.0000000000
  0.2697812000 -0.0533058000  0.0000000000
  0.4513833000 -0.1207608000  0.0000000000
  0.2949205000 -0.1332909000  0.0000000000
  0.0125867000  0.5309727000  0.0000000000
 -0.0037568000  0.5798856000  1.0000000000
* p-type functions
    4    2
          3.61900000
          0.71100000
          0.19510000
          0.06018000
  0.0291050000  0.0000000000
  0.1694665000  0.0000000000
  0.5129691000  0.0000000000
  0.4798044000  1.0000000000
* d-type functions
    1    1
          0.23800000
  1.0000000000

/B.cc-pVDZ-DK.de_Jong.9s4p1d.3s2p1d.
W.A. de Jong, R.J. Harrison, D.A. Dixon. J. Chem. Phys. 114 (2001) 48. doi:10.1063/1.1329891
BORON (9s,4p,1d) -> [3s,2p,1d]
     5.0   2
* s-type functions
    9    3
       4570.00000000
        685.90000000
        156.50000000
         44.47000000
         14.48000000
          5.13100000
          1.89800000
          0.33290000
          0.10430000
  0.0008100000 -0.0001625000  0.0000000000
  0.0054774000 -0.0011233000  0.0000000000
  0.0273355000 -0.0054882000  0.0000000000
  0.1016067000 -0.0219811000  0.0000000000
  0.2721905000 -0.0598059000  0.0000000000
  0.4482545000 -0.1388011000  0.0000000000
  0.2898816000 -0.1312193000  0.0000000000
  0.0143047000  0.5399343000  0.0000000000
 -0.0034809000  0.5803172000  1.0000000000
* p-type functions
    4    2
          6.00100000
          1.24100000
          0.33640000
          0.09538000
  0.0355071000  0.0000000000
  0.1980586000  0.0000000000
  0.5051304000  0.0000000000
  0.4796125000  1.0000000000
* d-type functions
    1    1
          0.34300000
  1.0000000000

/C.cc-pVDZ-DK.de_Jong.9s4p1d.3s2p1d.
W.A. de Jong, R.J. Harrison, D.A. Dixon. J. Chem. Phys. 114 (2001) 48. doi:10.1063/1.1329891
CARBON (9s,4p,1d) -> [3s,2p,1d]
     6.0   2
* s-type functions
    9    3
       6665.00000000
       1000.00000000
        228.00000000
         64.71000000
         21.06000000
          7.49500000
          2.79700000
          0.52150000
          0.15960000
  0.0008517000 -0.0001803000  0.0000000000
  0.0055121000 -0.0011949000  0.0000000000
  0.0273690000 -0.0057943000  0.0000000000
  0.1020568000 -0.0234166000  0.0000000000
  0.2749479000 -0.0640500000  0.0000000000
  0.4483409000 -0.1500919000  0.0000000000
  0.2847131000 -0.1268376000  0.0000000000
  0.0151750000  0.5451602000  0.0000000000
 -0.0031842000  0.5797815000  1.0000000000
* p-type functions
    4    2
          9.43900000
          2.00200000
          0.54560000
          0.15170000
  0.0381635000  0.0000000000
  0.2094925000  0.0000000000
  0.5084477000  0.0000000000
  0.4689417000  1.0000000000
* d-type functions
    1    1
          0.55000000
  1.0000000000

/N.cc-pVDZ-DK.de_Jong.9s4p1d.3s2p1d.
W.A. de Jong, R.J. Harrison, D.A. Dixon. J. Chem. Phys. 114 (2001) 48. doi:10.1063/1.1329891
NITROGEN (9s,4p,1d) -> [3s,2p,1d]
     7.0   2
* s-type functions
    9    3
       9046.00000000
       1357.00000000
        309.30000000
         87.73000000
         28.56000000
         10.21000000
          3.83800000
          0.74660000
          0.22480000
  0.0009106000 -0.0001995000  0.0000000000
  0.0056444000 -0.0012669000  0.0000000000
  0.0278072000 -0.0060906000  0.0000000000
  0.1036805000 -0.0246970000  0.0000000000
  0.2790142000 -0.0676028000  0.0000000000
  0.4482216000 -0.1582335000  0.0000000000
  0.2777373000 -0.1212060000  0.0000000000
  0.0153993000  0.5498871000  0.0000000000
 -0.0028549000  0.5777975000  1.0000000000
* p-type functions
    4    2
         13.55000000
          2.91700000
          0.79730000
          0.21850000
  0.0400103000  0.0000000000
  0.2172132000  0.0000000000
  0.5101907000  0.0000000000
  0.4622999000  1.0000000000
* d-type functions
    1    1
          0.81700000
  1.0000000000

/O.cc-pVDZ-DK.de_Jong.9s4p1d.3s2p1d.
W.A. de Jong, R.J. Harrison, D.A. Dixon. J. Chem. Phys. 114 (2001) 48. doi:10.1063/1.1329891
OXYGEN (9s,4p,1d) -> [3s,2p,1d]
     8.0   2
* s-type functions
    9    3
      11720.00000000
       1759.00000000
        400.80000000
        113.70000000
         37.03000000
         13.27000000
          5.02500000
          1.01300000
          0.30230000
  0.0009775000 -0.0002206000  0.0000000000
  0.0058106000 -0.0013435000  0.0000000000
  0.0283649000 -0.0064010000  0.0000000000
  0.1054311000 -0.0259275000  0.0000000000
  0.2834470000 -0.0711286000  0.0000000000
  0.4482844000 -0.1656153000  0.0000000000
  0.2702944000 -0.1160807000  0.0000000000
  0.0154031000  0.5585241000  0.0000000000
 -0.0025739000  0.5713981000  1.0000000000
* p-type functions
    4    2
         17.70000000
          3.85400000
          1.04600000
          0.27530000
  0.0431553000  0.0000000000
  0.2289863000  0.0000000000
  0.5086083000  0.0000000000
  0.4605682000  1.0000000000
* d-type functions
    1    1
          1.18500000
  1.0000000000

/F.cc-pVDZ-DK.de_Jong.9s4p1d.3s2p1d.
W.A. de Jong, R.J. Harrison, D.A. Dixon. J. Chem. Phys. 114 (2001) 48. doi:10.1063/1.1329891
FLUORINE (9s,4p,1d) -> [3s,2p,1d]
     9.0   2
* s-type functions
    9    3
      14710.00000000
       2207.00000000
        502.80000000
        142.60000000
         46.47000000
         16.70000000
          6.35600000
          1.31600000
          0.38970000
  0.0010485000 -0.0002416000  0.0000000000
  0.0059913000 -0.0014140000  0.0000000000
  0.0289399000 -0.0066702000  0.0000000000
  0.1072562000 -0.0269705000  0.0000000000
  0.2873039000 -0.0739670000  0.0000000000
  0.4480684000 -0.1710341000  0.0000000000
  0.2639263000 -0.1111695000  0.0000000000
  0.0152658000  0.5643084000  0.0000000000
 -0.0023198000  0.5669973000  1.0000000000
* p-type functions
    4    2
         22.67000000
          4.97700000
          1.34700000
          0.34710000
  0.0450688000  0.0000000000
  0.2358286000  0.0000000000
  0.5083765000  0.0000000000
  0.4581376000  1.0000000000
* d-type functions
    1    1
          1.64000000
  1.0000000000

/Ne.cc-pVDZ-DK.de_Jong.9s4p1d.3s2p1d.
W.A. de Jong, R.J. Harrison, D.A. Dixon. J. Chem. Phys. 114 (2001) 48. doi:10.1063/1.1329891
NEON (9s,4p,1d) -> [3s,2p,1d]
    10.0   2
* s-type functions
    9    3
      17880.00000000
       2683.00000000
        611.50000000
        173.50000000
         56.64000000
         20.42000000
          7.81000000
          1.65300000
          0.48690000
  0.0011307000 -0.0002646000  0.0000000000
  0.0062267000 -0.0014920000  0.0000000000
  0.0297204000 -0.0069592000  0.0000000000
  0.1095553000 -0.0280213000  0.0000000000
  0.2915077000 -0.0765658000  0.0000000000
  0.4475884000 -0.1755371000  0.0000000000
  0.2570002000 -0.1055539000  0.0000000000
  0.0149818000  0.5688922000  0.0000000000
 -0.0020861000  0.5629843000  1.0000000000
* p-type functions
    4    2
         28.39000000
          6.27000000
          1.69500000
          0.43170000
  0.0463396000  0.0000000000
  0.2403369000  0.0000000000
  0.5085722000  0.0000000000
  0.4556514000  1.0000000000
* d-type functions
    1    1
          2.20200000
  1.0000000000

/Na.cc-pVDZ-DK.de_Jong.12s8p1d.4s3p1d.
W.A. de Jong, R.J. Harrison, D.A. Dixon. J. Chem. Phys. 114 (2001) 48. doi:10.1063/1.1329891
SODIUM (12s,8p,1d) -> [4s,3p,1d]
    11.0   2
* s-type functions
   12    4
      31700.00000000
       4755.00000000
       1082.00000000
        306.40000000
         99.53000000
         35.42000000
         13.30000000
          4.39200000
          1.67600000
          0.58890000
          0.05640000
          0.02307000
  0.0008311000 -0.0002038000  0.0000309000  0.0000000000
  0.0041340000 -0.0010156000  0.0001529000  0.0000000000
  0.0191397000 -0.0047499000  0.0007238000  0.0000000000
  0.0728293000 -0.0185222000  0.0027815000  0.0000000000
  0.2133784000 -0.0585794000  0.0090308000  0.0000000000
  0.4159265000 -0.1380784000  0.0208612000  0.0000000000
  0.3715352000 -0.1930778000  0.0317768000  0.0000000000
  0.0621051000  0.0879880000 -0.0194200000  0.0000000000
 -0.0061919000  0.6050688000 -0.1031810000  0.0000000000
  0.0024142000  0.4394039000 -0.1979506000  0.0000000000
 -0.0004383000  0.0128079000  0.6591622000  0.0000000000
  0.0002397000 -0.0055612000  0.4278197000  1.0000000000
* p-type functions
    8    3
        138.10000000
         32.24000000
          9.98500000
          3.48400000
          1.23100000
          0.41770000
          0.06513000
          0.02053000
  0.0059396000 -0.0005957000  0.0000000000
  0.0418154000 -0.0040976000  0.0000000000
  0.1631422000 -0.0168211000  0.0000000000
  0.3593556000 -0.0353193000  0.0000000000
  0.4497397000 -0.0521735000  0.0000000000
  0.2275315000 -0.0168239000  0.0000000000
  0.0081254000  0.4346322000  0.0000000000
 -0.0019728000  0.6581966000  1.0000000000
* d-type functions
    1    1
          0.09730000
  1.0000000000

/Mg.cc-pVDZ-DK.de_Jong.12s8p1d.4s3p1d.
W.A. de Jong, R.J. Harrison, D.A. Dixon. J. Chem. Phys. 114 (2001) 48. doi:10.1063/1.1329891
MAGNESIUM (12s,8p,1d) -> [4s,3p,1d]
    12.0   2
* s-type functions
   12    4
      47390.00000000
       7108.00000000
       1618.00000000
        458.40000000
        149.30000000
         53.59000000
         20.70000000
          8.38400000
          2.54200000
          0.87870000
          0.10770000
          0.03999000
  0.0007178000 -0.0001825000  0.0000352000  0.0000000000
  0.0033145000 -0.0008391000  0.0001616000  0.0000000000
  0.0147967000 -0.0038204000  0.0007401000  0.0000000000
  0.0564860000 -0.0146306000  0.0028164000  0.0000000000
  0.1710009000 -0.0482828000  0.0094299000  0.0000000000
  0.3648575000 -0.1154055000  0.0224423000  0.0000000000
  0.4052922000 -0.2004640000  0.0410435000  0.0000000000
  0.1341815000 -0.0317073000  0.0050180000  0.0000000000
  0.0048781000  0.5725837000 -0.1350467000  0.0000000000
  0.0002821000  0.5391743000 -0.2547294000  0.0000000000
  0.0000277000  0.0214564000  0.6092437000  0.0000000000
 -0.0000119000 -0.0081382000  0.5059881000  1.0000000000
* p-type functions
    8    3
        179.90000000
         42.14000000
         13.13000000
          4.62800000
          1.67000000
          0.58570000
          0.13110000
          0.04112000
  0.0055546000 -0.0008908000  0.0000000000
  0.0395455000 -0.0061865000  0.0000000000
  0.1578179000 -0.0261337000  0.0000000000
  0.3585344000 -0.0568221000  0.0000000000
  0.4569075000 -0.0871624000  0.0000000000
  0.2158495000 -0.0121730000  0.0000000000
  0.0067001000  0.4982604000  0.0000000000
 -0.0001312000  0.6008489000  1.0000000000
* d-type functions
    1    1
          0.18700000
  1.0000000000

/Al.cc-pVDZ-DK.de_Jong.12s8p1d.4s3p1d.
W.A. de Jong, R.J. Harrison, D.A. Dixon. J. Chem. Phys. 114 (2001) 48. doi:10.1063/1.1329891
ALUMINIUM (12s,8p,1d) -> [4s,3p,1d]
    13.0   2
* s-type functions
   12    4
      64150.00000000
       9617.00000000
       2189.00000000
        620.50000000
        202.70000000
         73.15000000
         28.55000000
         11.77000000
          3.30000000
          1.17300000
          0.17520000
          0.06473000
  0.0006736000 -0.0001763000  0.0000407000  0.0000000000
  0.0029457000 -0.0007667000  0.0001769000  0.0000000000
  0.0127173000 -0.0033824000  0.0007821000  0.0000000000
  0.0482122000 -0.0127779000  0.0029518000  0.0000000000
  0.1479148000 -0.0426908000  0.0099318000  0.0000000000
  0.3307763000 -0.1039923000  0.0243442000  0.0000000000
  0.4142651000 -0.1964148000  0.0474816000  0.0000000000
  0.1878554000 -0.0801420000  0.0197081000  0.0000000000
  0.0114868000  0.5440095000 -0.1602974000  0.0000000000
 -0.0012718000  0.5750364000 -0.3096187000  0.0000000000
  0.0004225000  0.0282815000  0.6239180000  0.0000000000
 -0.0001977000 -0.0093522000  0.5170715000  1.0000000000
* p-type functions
    8    3
        258.80000000
         60.89000000
         19.14000000
          6.88100000
          2.57400000
          0.95720000
          0.20990000
          0.05986000
  0.0042537000 -0.0007811000  0.0000000000
  0.0310267000 -0.0055179000  0.0000000000
  0.1296450000 -0.0246142000  0.0000000000
  0.3209730000 -0.0581875000  0.0000000000
  0.4534894000 -0.0982407000  0.0000000000
  0.2747866000 -0.0258070000  0.0000000000
  0.0191205000  0.4633873000  0.0000000000
 -0.0031381000  0.6493887000  1.0000000000
* d-type functions
    1    1
          0.18900000
  1.0000000000

/Si.cc-pVDZ-DK.de_Jong.12s8p1d.4s3p1d.
W.A. de Jong, R.J. Harrison, D.A. Dixon. J. Chem. Phys. 114 (2001) 48. doi:10.1063/1.1329891
SILICON (12s,8p,1d) -> [4s,3p,1d]
    14.0   2
* s-type functions
   12    4
      78860.00000000
      11820.00000000
       2692.00000000
        763.40000000
        249.60000000
         90.28000000
         35.29000000
         14.51000000
          4.05300000
          1.48200000
          0.25170000
          0.09243000
  0.0006815000 -0.0001827000  0.0000468000  0.0000000000
  0.0028736000 -0.0007666000  0.0001964000  0.0000000000
  0.0120698000 -0.0032882000  0.0008420000  0.0000000000
  0.0453586000 -0.0123094000  0.0031628000  0.0000000000
  0.1395458000 -0.0411277000  0.0105819000  0.0000000000
  0.3173537000 -0.1013628000  0.0264728000  0.0000000000
  0.4168447000 -0.1967629000  0.0524161000  0.0000000000
  0.2084412000 -0.0990262000  0.0282323000  0.0000000000
  0.0143428000  0.5309218000 -0.1800982000  0.0000000000
 -0.0020126000  0.5887603000 -0.3441170000  0.0000000000
  0.0006174000  0.0325794000  0.6275986000  0.0000000000
 -0.0002798000 -0.0095255000  0.5330278000  1.0000000000
* p-type functions
    8    3
        315.90000000
         74.42000000
         23.48000000
          8.48800000
          3.21700000
          1.22900000
          0.29640000
          0.08768000
  0.0041444000 -0.0009048000  0.0000000000
  0.0302971000 -0.0063916000  0.0000000000
  0.1278303000 -0.0289531000  0.0000000000
  0.3211623000 -0.0694552000  0.0000000000
  0.4550327000 -0.1193365000  0.0000000000
  0.2681699000 -0.0196342000  0.0000000000
  0.0188480000  0.5098641000  0.0000000000
 -0.0026272000  0.6006552000  1.0000000000
* d-type functions
    1    1
          0.27500000
  1.0000000000

/P.cc-pVDZ-DK.de_Jong.12s8p1d.4s3p1d.
W.A. de Jong, R.J. Harrison, D.A. Dixon. J. Chem. Phys. 114 (2001) 48. doi:10.1063/1.1329891
PHOSPHORUS (12s,8p,1d) -> [4s,3p,1d]
    15.0   2
* s-type functions
   12    4
      94840.00000000
      14220.00000000
       3236.00000000
        917.10000000
        299.50000000
        108.10000000
         42.18000000
         17.28000000
          4.85800000
          1.81800000
          0.33720000
          0.12320000
  0.0006956000 -0.0001903000  0.0000523000  0.0000000000
  0.0028421000 -0.0007743000  0.0002129000  0.0000000000
  0.0116561000 -0.0032408000  0.0008890000  0.0000000000
  0.0433935000 -0.0120211000  0.0033187000  0.0000000000
  0.1341765000 -0.0402672000  0.0110884000  0.0000000000
  0.3095842000 -0.1005414000  0.0282751000  0.0000000000
  0.4187323000 -0.1983197000  0.0564463000  0.0000000000
  0.2207409000 -0.1109545000  0.0347289000  0.0000000000
  0.0162017000  0.5231147000 -0.1961133000  0.0000000000
 -0.0025086000  0.5965584000 -0.3685818000  0.0000000000
  0.0007383000  0.0360259000  0.6296116000  0.0000000000
 -0.0003267000 -0.0094784000  0.5462342000  1.0000000000
* p-type functions
    8    3
        370.50000000
         87.33000000
         27.59000000
         10.00000000
          3.82500000
          1.49400000
          0.39210000
          0.11860000
  0.0042075000 -0.0010213000  0.0000000000
  0.0307497000 -0.0072319000  0.0000000000
  0.1303114000 -0.0328950000  0.0000000000
  0.3278826000 -0.0796019000  0.0000000000
  0.4565077000 -0.1348259000  0.0000000000
  0.2525705000 -0.0086235000  0.0000000000
  0.0168823000  0.5375353000  0.0000000000
 -0.0020717000  0.5691375000  1.0000000000
* d-type functions
    1    1
          0.37300000
  1.0000000000

/S.cc-pVDZ-DK.de_Jong.12s8p1d.4s3p1d.
W.A. de Jong, R.J. Harrison, D.A. Dixon. J. Chem. Phys. 114 (2001) 48. doi:10.1063/1.1329891
SULFUR (12s,8p,1d) -> [4s,3p,1d]
    16.0   2
* s-type functions
   12    4
     110800.00000000
      16610.00000000
       3781.00000000
       1071.00000000
        349.80000000
        126.30000000
         49.26000000
         20.16000000
          5.72000000
          2.18200000
          0.43270000
          0.15700000
  0.0007215000 -0.0002010000  0.0000583000  0.0000000000
  0.0028720000 -0.0007969000  0.0002317000  0.0000000000
  0.0115194000 -0.0032599000  0.0009442000  0.0000000000
  0.0424617000 -0.0119806000  0.0035003000  0.0000000000
  0.1311104000 -0.0400080000  0.0116247000  0.0000000000
  0.3046040000 -0.1005679000  0.0299867000  0.0000000000
  0.4193121000 -0.2001709000  0.0600636000  0.0000000000
  0.2282718000 -0.1188477000  0.0399813000  0.0000000000
  0.0176436000  0.5185418000 -0.2109019000  0.0000000000
 -0.0029299000  0.6009686000 -0.3885008000  0.0000000000
  0.0008367000  0.0386850000  0.6389962000  0.0000000000
 -0.0003625000 -0.0092249000  0.5505990000  1.0000000000
* p-type functions
    8    3
        399.70000000
         94.19000000
         29.75000000
         10.77000000
          4.11900000
          1.62500000
          0.47260000
          0.14070000
  0.0047937000 -0.0012442000  0.0000000000
  0.0347928000 -0.0088187000  0.0000000000
  0.1451669000 -0.0393306000  0.0000000000
  0.3542203000 -0.0934934000  0.0000000000
  0.4584235000 -0.1477061000  0.0000000000
  0.2058117000  0.0308319000  0.0000000000
  0.0102234000  0.5613096000  0.0000000000
 -0.0000639000  0.5347270000  1.0000000000
* d-type functions
    1    1
          0.47900000
  1.0000000000

/Cl.cc-pVDZ-DK.de_Jong.12s8p1d.4s3p1d.
W.A. de Jong, R.J. Harrison, D.A. Dixon. J. Chem. Phys. 114 (2001) 48. doi:10.1063/1.1329891
CHLORINE (12s,8p,1d) -> [4s,3p,1d]
    17.0   2
* s-type functions
   12    4
     127900.00000000
      19170.00000000
       4363.00000000
       1236.00000000
        403.60000000
        145.70000000
         56.81000000
         23.23000000
          6.64400000
          2.57500000
          0.53710000
          0.19380000
  0.0007497000 -0.0002120000  0.0000641000  0.0000000000
  0.0029170000 -0.0008223000  0.0002493000  0.0000000000
  0.0114534000 -0.0032917000  0.0009932000  0.0000000000
  0.0417491000 -0.0119686000  0.0036490000  0.0000000000
  0.1287741000 -0.0398788000  0.0120657000  0.0000000000
  0.3006785000 -0.1007232000  0.0313839000  0.0000000000
  0.4195476000 -0.2019238000  0.0630662000  0.0000000000
  0.2342971000 -0.1251436000  0.0444061000  0.0000000000
  0.0188435000  0.5156793000 -0.2234945000  0.0000000000
 -0.0032902000  0.6036405000 -0.4034348000  0.0000000000
  0.0009137000  0.0409998000  0.6454547000  0.0000000000
 -0.0003896000 -0.0089767000  0.5551503000  1.0000000000
* p-type functions
    8    3
        417.60000000
         98.33000000
         31.04000000
         11.19000000
          4.24900000
          1.62400000
          0.53220000
          0.16200000
  0.0056562000 -0.0015435000  0.0000000000
  0.0406072000 -0.0109957000  0.0000000000
  0.1657433000 -0.0473146000  0.0000000000
  0.3875622000 -0.1110564000  0.0000000000
  0.4561525000 -0.1527934000  0.0000000000
  0.1510753000  0.0902488000  0.0000000000
  0.0018524000  0.5790746000  0.0000000000
  0.0018725000  0.4831434000  1.0000000000
* d-type functions
    1    1
          0.60000000
  1.0000000000

/Ar.cc-pVDZ-DK.de_Jong.12s8p1d.4s3p1d.
W.A. de Jong, R.J. Harrison, D.A. Dixon. J. Chem. Phys. 114 (2001) 48. doi:10.1063/1.1329891
ARGON (12s,8p,1d) -> [4s,3p,1d]
    18.0   2
* s-type functions
   12    4
     145700.00000000
      21840.00000000
       4972.00000000
       1408.00000000
        459.70000000
        165.90000000
         64.69000000
         26.44000000
          7.62800000
          2.99600000
          0.65040000
          0.23370000
  0.0007819000 -0.0002242000  0.0000700000  0.0000000000
  0.0029793000 -0.0008517000  0.0002668000  0.0000000000
  0.0114728000 -0.0033425000  0.0010416000  0.0000000000
  0.0413528000 -0.0120238000  0.0037904000  0.0000000000
  0.1272786000 -0.0399435000  0.0124761000  0.0000000000
  0.2980274000 -0.1011846000  0.0326374000  0.0000000000
  0.4194869000 -0.2037182000  0.0656755000  0.0000000000
  0.2383968000 -0.1297272000  0.0480165000  0.0000000000
  0.0196834000  0.5143673000 -0.2347575000  0.0000000000
 -0.0035396000  0.6048173000 -0.4146406000  0.0000000000
  0.0009560000  0.0429665000  0.6501973000  0.0000000000
 -0.0004033000 -0.0087217000  0.5593896000  1.0000000000
* p-type functions
    8    3
        453.70000000
        106.80000000
         33.73000000
         12.13000000
          4.59400000
          1.67800000
          0.59090000
          0.18520000
  0.0061759000 -0.0017393000  0.0000000000
  0.0439690000 -0.0124412000  0.0000000000
  0.1778638000 -0.0524542000  0.0000000000
  0.4070852000 -0.1237693000  0.0000000000
  0.4513756000 -0.1509115000  0.0000000000
  0.1222191000  0.1433727000  0.0000000000
 -0.0043985000  0.5839918000  0.0000000000
  0.0020335000  0.4373354000  1.0000000000
* d-type functions
    1    1
          0.73800000
  1.0000000000

/Sc.cc-pVDZ-DK.Balabanov.20s16p8d2f.6s5p3d1f.
N.B. Balabanov, K.A. Peterson. J. Chem. Phys. 125 (2006) 074110. doi:10.1063/1.2335444
SCANDIUM (20s,16p,8d,2f) -> [6s,5p,3d,1f]
    21.0   3
* s-type functions
   20    6
    2715278.00000000
     406598.40000000
      92530.04000000
      26207.92000000
       8549.42900000
       3085.97500000
       1203.17200000
        498.48690000
        216.73600000
         97.87476000
         45.20433000
         20.21187000
          9.57475100
          4.54034600
          1.99568700
          0.94221500
          0.41784500
          0.09576100
          0.05135100
          0.02387800
  0.0001060000 -0.0000610000  0.0000120000 -0.0000030000 -0.0000050000  0.0000000000
  0.0003170000 -0.0001820000  0.0000360000 -0.0000090000 -0.0000150000  0.0000000000
  0.0009050000 -0.0005200000  0.0001020000 -0.0000250000 -0.0000430000  0.0000000000
  0.0024640000 -0.0014170000  0.0002800000 -0.0000680000 -0.0001190000  0.0000000000
  0.0067800000 -0.0039120000  0.0007740000 -0.0001870000 -0.0003170000  0.0000000000
  0.0186790000 -0.0108530000  0.0021630000 -0.0005230000 -0.0009330000  0.0000000000
  0.0494180000 -0.0291550000  0.0058830000 -0.0014240000 -0.0023690000  0.0000000000
  0.1172100000 -0.0716000000  0.0148870000 -0.0035970000 -0.0065510000  0.0000000000
  0.2280410000 -0.1504450000  0.0331320000 -0.0080330000 -0.0129980000  0.0000000000
  0.3098720000 -0.2435420000  0.0602850000 -0.0145980000 -0.0278890000  0.0000000000
  0.2175500000 -0.2334530000  0.0674590000 -0.0165140000 -0.0226520000  0.0000000000
  0.0724860000  0.0449970000 -0.0250150000  0.0062890000 -0.0046730000  0.0000000000
  0.1159500000  0.4960340000 -0.2708040000  0.0682630000  0.1586420000  0.0000000000
  0.1166380000  0.4848560000 -0.4320030000  0.1165590000  0.1412640000  0.0000000000
  0.0198230000  0.0875670000  0.0764930000 -0.0299490000  0.0934350000  0.0000000000
 -0.0004880000 -0.0052830000  0.7030970000 -0.2308390000 -0.8973280000  0.0000000000
  0.0001830000  0.0006420000  0.4425890000 -0.3023230000  0.0597060000  0.0000000000
 -0.0000700000 -0.0006970000  0.0281380000  0.2699030000  2.3097260000  0.0000000000
  0.0000630000  0.0005790000 -0.0122190000  0.5919260000 -1.2862210000  0.0000000000
 -0.0000130000 -0.0001410000  0.0042310000  0.3036850000 -0.7165160000  1.0000000000
* p-type functions
   16    5
      10592.19000000
       2507.53300000
        814.45710000
        311.51950000
        131.96170000
         59.98718000
         28.66250000
         14.10851000
          7.10370600
          3.60920000
          1.77607000
          0.85476000
          0.40223900
          0.15468000
          0.06488800
          0.02630100
  0.0001010000 -0.0000330000 -0.0000080000  0.0000100000  0.0000000000
  0.0005310000 -0.0001740000 -0.0000420000  0.0000520000  0.0000000000
  0.0026120000 -0.0008600000 -0.0002100000  0.0002530000  0.0000000000
  0.0106240000 -0.0035150000 -0.0008550000  0.0010510000  0.0000000000
  0.0359750000 -0.0120540000 -0.0029520000  0.0035550000  0.0000000000
  0.0992420000 -0.0340690000 -0.0083120000  0.0102180000  0.0000000000
  0.2117340000 -0.0752130000 -0.0185310000  0.0222040000  0.0000000000
  0.3300720000 -0.1224250000 -0.0300330000  0.0372860000  0.0000000000
  0.3297560000 -0.1293380000 -0.0326410000  0.0378240000  0.0000000000
  0.1568380000  0.0162740000  0.0083480000 -0.0049720000  0.0000000000
  0.0218050000  0.3101820000  0.0879920000 -0.1112850000  0.0000000000
 -0.0017970000  0.4626890000  0.1519130000 -0.1627100000  0.0000000000
 -0.0014350000  0.3035190000  0.0964060000 -0.1826910000  0.0000000000
 -0.0003000000  0.0505150000 -0.2563870000  0.3998710000  0.0000000000
  0.0000370000 -0.0043930000 -0.5874490000  0.6854100000  0.0000000000
 -0.0000140000  0.0018070000 -0.3062660000  0.0751950000  1.0000000000
* d-type functions
    8    3
         50.65420000
         14.73250000
          5.18046000
          2.01959000
          0.79921900
          0.30531600
          0.11044400
          0.03706500
  0.0042520000 -0.0043960000  0.0000000000
  0.0274650000 -0.0282630000  0.0000000000
  0.0992270000 -0.1047920000  0.0000000000
  0.2299670000 -0.2343530000  0.0000000000
  0.3442870000 -0.3255090000  0.0000000000
  0.3736260000 -0.0699950000  0.0000000000
  0.2680210000  0.5949220000  0.0000000000
  0.0661680000  0.3975880000  1.0000000000
* f-type functions
    2    1
          0.71260000
          0.16360000
  0.3617450000
  0.8218680000

/Ti.cc-pVDZ-DK.Balabanov.20s16p8d2f.6s5p3d1f.
N.B. Balabanov, K.A. Peterson. J. Chem. Phys. 125 (2006) 074110. doi:10.1063/1.2335444
TITANIUM (20s,16p,8d,2f) -> [6s,5p,3d,1f]
    22.0   3
* s-type functions
   20    6
    3014643.00000000
     451432.90000000
     102733.80000000
      29098.17000000
       9492.33000000
       3426.34600000
       1335.89600000
        553.50260000
        240.69250000
        108.72930000
         50.26457000
         22.58004000
         10.71432000
          5.09354600
          2.24418300
          1.05957000
          0.46884900
          0.10614300
          0.05526200
          0.02546500
  0.0001120000 -0.0000630000  0.0000130000 -0.0000030000 -0.0000060000  0.0000000000
  0.0003320000 -0.0001890000  0.0000380000 -0.0000090000 -0.0000170000  0.0000000000
  0.0009400000 -0.0005350000  0.0001090000 -0.0000260000 -0.0000480000  0.0000000000
  0.0025320000 -0.0014430000  0.0002940000 -0.0000700000 -0.0001310000  0.0000000000
  0.0068790000 -0.0039330000  0.0008030000 -0.0001910000 -0.0003460000  0.0000000000
  0.0187490000 -0.0107960000  0.0022200000 -0.0005260000 -0.0010090000  0.0000000000
  0.0492940000 -0.0288290000  0.0059990000 -0.0014240000 -0.0025320000  0.0000000000
  0.1166940000 -0.0706740000  0.0151490000 -0.0035930000 -0.0070420000  0.0000000000
  0.2273250000 -0.1487780000  0.0337330000 -0.0080220000 -0.0138290000  0.0000000000
  0.3105540000 -0.2420600000  0.0615630000 -0.0146460000 -0.0302210000  0.0000000000
  0.2205840000 -0.2347210000  0.0694620000 -0.0166610000 -0.0239810000  0.0000000000
  0.0732470000  0.0422060000 -0.0241550000  0.0058890000 -0.0071850000  0.0000000000
  0.1131540000  0.4983350000 -0.2789840000  0.0693470000  0.1758840000  0.0000000000
  0.1136590000  0.4868870000 -0.4386710000  0.1159210000  0.1462460000  0.0000000000
  0.0193160000  0.0879040000  0.0909060000 -0.0327170000  0.0971840000  0.0000000000
 -0.0004650000 -0.0052640000  0.7091310000 -0.2334140000 -1.0017360000  0.0000000000
  0.0001590000  0.0005520000  0.4311640000 -0.2869410000  0.1999570000  0.0000000000
 -0.0000590000 -0.0006280000  0.0258980000  0.2839540000  2.2181040000  0.0000000000
  0.0000620000  0.0005530000 -0.0110070000  0.5841130000 -1.3423230000  0.0000000000
 -0.0000080000 -0.0001180000  0.0038890000  0.2949620000 -0.6139360000  1.0000000000
* p-type functions
   16    5
      11912.03000000
       2819.94700000
        915.94790000
        350.38420000
        148.48250000
         67.53944000
         32.30332000
         15.92786000
          8.03803500
          4.09391600
          2.02239000
          0.97610200
          0.45959500
          0.17719500
          0.07344200
          0.02933400
  0.0001040000 -0.0000350000  0.0000080000  0.0000100000  0.0000000000
  0.0005330000 -0.0001790000  0.0000430000  0.0000540000  0.0000000000
  0.0025880000 -0.0008700000  0.0002090000  0.0002610000  0.0000000000
  0.0104700000 -0.0035410000  0.0008480000  0.0010710000  0.0000000000
  0.0354710000 -0.0121500000  0.0029250000  0.0036390000  0.0000000000
  0.0981640000 -0.0344710000  0.0082760000  0.0104610000  0.0000000000
  0.2106310000 -0.0765940000  0.0185500000  0.0229850000  0.0000000000
  0.3301970000 -0.1256220000  0.0303400000  0.0386720000  0.0000000000
  0.3305000000 -0.1320480000  0.0327150000  0.0394990000  0.0000000000
  0.1571860000  0.0193960000 -0.0087200000 -0.0068990000  0.0000000000
  0.0219670000  0.3164550000 -0.0886360000 -0.1146250000  0.0000000000
 -0.0017610000  0.4614890000 -0.1491650000 -0.1708870000  0.0000000000
 -0.0014300000  0.2980100000 -0.0932320000 -0.1652610000  0.0000000000
 -0.0002900000  0.0495170000  0.2507080000  0.4058580000  0.0000000000
  0.0000340000 -0.0041080000  0.5861800000  0.6742340000  0.0000000000
 -0.0000130000  0.0016930000  0.3140930000  0.0782790000  1.0000000000
* d-type functions
    8    3
         64.34020000
         18.84180000
          6.71983000
          2.65613000
          1.07368000
          0.42055700
          0.15481700
          0.05149000
  0.0038830000 -0.0039790000  0.0000000000
  0.0262040000 -0.0267640000  0.0000000000
  0.0968870000 -0.1018940000  0.0000000000
  0.2316310000 -0.2371110000  0.0000000000
  0.3519720000 -0.3132860000  0.0000000000
  0.3725630000 -0.0465630000  0.0000000000
  0.2505630000  0.5840720000  0.0000000000
  0.0600620000  0.4153220000  1.0000000000
* f-type functions
    2    1
          1.22740000
          0.27880000
  0.3581580000
  0.8257940000

/V.cc-pVDZ-DK.Balabanov.20s16p8d2f.6s5p3d1f.
N.B. Balabanov, K.A. Peterson. J. Chem. Phys. 125 (2006) 074110. doi:10.1063/1.2335444
VANADIUM (20s,16p,8d,2f) -> [6s,5p,3d,1f]
    23.0   3
* s-type functions
   20    6
    3321857.00000000
     497435.60000000
     113202.70000000
      32063.33000000
      10459.62000000
       3775.50600000
       1472.04000000
        609.93310000
        265.26340000
        119.86070000
         55.44891000
         24.98372000
         11.88056000
          5.66031100
          2.49570300
          1.17786600
          0.52004400
          0.11596500
          0.05893800
          0.02694600
  0.0001180000 -0.0000660000  0.0000140000 -0.0000030000 -0.0000060000  0.0000000000
  0.0003490000 -0.0001940000  0.0000410000 -0.0000100000 -0.0000180000  0.0000000000
  0.0009820000 -0.0005450000  0.0001150000 -0.0000270000 -0.0000510000  0.0000000000
  0.0026180000 -0.0014570000  0.0003080000 -0.0000720000 -0.0001410000  0.0000000000
  0.0070320000 -0.0039270000  0.0008330000 -0.0001940000 -0.0003660000  0.0000000000
  0.0189660000 -0.0106680000  0.0022780000 -0.0005300000 -0.0010610000  0.0000000000
  0.0495440000 -0.0283160000  0.0061170000 -0.0014250000 -0.0026350000  0.0000000000
  0.1170070000 -0.0692880000  0.0154080000 -0.0035890000 -0.0073430000  0.0000000000
  0.2280590000 -0.1461110000  0.0343010000 -0.0080030000 -0.0143270000  0.0000000000
  0.3128050000 -0.2389450000  0.0627220000 -0.0146610000 -0.0316410000  0.0000000000
  0.2243300000 -0.2339170000  0.0710470000 -0.0167040000 -0.0247500000  0.0000000000
  0.0735890000  0.0421070000 -0.0241190000  0.0057060000 -0.0086380000  0.0000000000
  0.1075150000  0.5024910000 -0.2872100000  0.0703560000  0.1872210000  0.0000000000
  0.1073700000  0.4878150000 -0.4426090000  0.1145620000  0.1479670000  0.0000000000
  0.0180480000  0.0873120000  0.1068750000 -0.0359500000  0.0933070000  0.0000000000
 -0.0004330000 -0.0053530000  0.7133290000 -0.2344200000 -1.0567540000  0.0000000000
  0.0001240000  0.0004350000  0.4194430000 -0.2726820000  0.2916520000  0.0000000000
 -0.0000460000 -0.0005700000  0.0238310000  0.2965280000  2.1339990000  0.0000000000
  0.0000590000  0.0005410000 -0.0098830000  0.5772100000 -1.3543780000  0.0000000000
 -0.0000030000 -0.0000970000  0.0036330000  0.2866900000 -0.5520240000  1.0000000000
* p-type functions
   16    5
      13273.20000000
       3142.12600000
       1020.58800000
        390.44070000
        165.50430000
         75.32006000
         36.05503000
         17.80436000
          9.00292900
          4.59454400
          2.27676000
          1.10117800
          0.51863800
          0.20057400
          0.08121700
          0.03173300
  0.0001080000 -0.0000370000  0.0000090000  0.0000110000  0.0000000000
  0.0005390000 -0.0001840000  0.0000440000  0.0000560000  0.0000000000
  0.0025820000 -0.0008830000  0.0002140000  0.0002660000  0.0000000000
  0.0103900000 -0.0035760000  0.0008620000  0.0010870000  0.0000000000
  0.0351890000 -0.0122640000  0.0029720000  0.0036880000  0.0000000000
  0.0975890000 -0.0348910000  0.0084410000  0.0106400000  0.0000000000
  0.2102360000 -0.0778890000  0.0189950000  0.0234680000  0.0000000000
  0.3306940000 -0.1284150000  0.0312890000  0.0397630000  0.0000000000
  0.3306980000 -0.1338960000  0.0333380000  0.0401880000  0.0000000000
  0.1567000000  0.0231590000 -0.0100750000 -0.0080990000  0.0000000000
  0.0218570000  0.3220750000 -0.0925620000 -0.1183280000  0.0000000000
 -0.0017680000  0.4598860000 -0.1488610000 -0.1730030000  0.0000000000
 -0.0014570000  0.2931220000 -0.0823020000 -0.1539630000  0.0000000000
 -0.0002830000  0.0484450000  0.2504590000  0.4118200000  0.0000000000
  0.0000310000 -0.0037030000  0.5799250000  0.6696520000  0.0000000000
 -0.0000120000  0.0015520000  0.3218540000  0.0765210000  1.0000000000
* d-type functions
    8    3
         78.28410000
         23.01200000
          8.29016000
          3.30791000
          1.35555000
          0.53925800
          0.20125500
          0.06714600
  0.0035870000 -0.0038180000  0.0000000000
  0.0249740000 -0.0265310000  0.0000000000
  0.0940290000 -0.1030470000  0.0000000000
  0.2290420000 -0.2466900000  0.0000000000
  0.3518030000 -0.3129250000  0.0000000000
  0.3708890000 -0.0275810000  0.0000000000
  0.2485580000  0.5660110000  0.0000000000
  0.0629030000  0.4242030000  1.0000000000
* f-type functions
    2    1
          1.74880000
          0.40570000
  0.3900680000
  0.8008410000

/Cr.cc-pVDZ-DK.Balabanov.20s16p8d2f.6s5p3d1f.
N.B. Balabanov, K.A. Peterson. J. Chem. Phys. 125 (2006) 074110. doi:10.1063/1.2335444
CHROMIUM (20s,16p,8d,2f) -> [6s,5p,3d,1f]
    24.0   3
* s-type functions
   20    6
    6177194.00000000
     924929.50000000
     210486.50000000
      59620.05000000
      19450.76000000
       7022.05600000
       2738.76300000
       1135.81400000
        495.09230000
        224.74870000
        105.38360000
         50.19359000
         22.24957000
         10.98265000
          5.38366500
          2.34368500
          1.10520200
          0.48784800
          0.08959900
          0.03342300
  0.0000840000 -0.0000460000  0.0000100000 -0.0000020000  0.0000040000  0.0000000000
  0.0002410000 -0.0001340000  0.0000290000 -0.0000070000  0.0000130000  0.0000000000
  0.0006580000 -0.0003640000  0.0000780000 -0.0000180000  0.0000360000  0.0000000000
  0.0016730000 -0.0009270000  0.0002000000 -0.0000450000  0.0000880000  0.0000000000
  0.0042480000 -0.0023610000  0.0005110000 -0.0001170000  0.0002390000  0.0000000000
  0.0108890000 -0.0060760000  0.0013170000 -0.0002980000  0.0005570000  0.0000000000
  0.0278590000 -0.0157230000  0.0034470000 -0.0007900000  0.0016820000  0.0000000000
  0.0678880000 -0.0390780000  0.0086680000 -0.0019570000  0.0034900000  0.0000000000
  0.1468020000 -0.0887110000  0.0204950000 -0.0047250000  0.0105120000  0.0000000000
  0.2556230000 -0.1701120000  0.0417010000 -0.0093680000  0.0153920000  0.0000000000
  0.2984080000 -0.2472980000  0.0693000000 -0.0162500000  0.0402770000  0.0000000000
  0.1745600000 -0.1863810000  0.0581890000 -0.0125490000  0.0073940000  0.0000000000
  0.0696900000  0.1584390000 -0.0761810000  0.0155500000  0.0140570000  0.0000000000
  0.1141840000  0.5481250000 -0.3561380000  0.0916910000 -0.2936730000  0.0000000000
  0.0840700000  0.3885790000 -0.3726510000  0.0854260000  0.0030100000  0.0000000000
  0.0099260000  0.0492810000  0.2838030000 -0.0662500000 -0.1758500000  0.0000000000
 -0.0003160000 -0.0043050000  0.7149340000 -0.2868520000  1.5006460000  0.0000000000
  0.0000590000  0.0001110000  0.2908760000 -0.1703030000 -1.1269400000  0.0000000000
  0.0000160000 -0.0000270000  0.0069090000  0.6967260000 -1.2270880000  0.0000000000
  0.0000220000  0.0001410000  0.0002540000  0.4475590000  1.4652390000  1.0000000000
* p-type functions
   16    5
      14454.20000000
       3421.67600000
       1111.38700000
        425.19180000
        180.26230000
         82.06117000
         39.29726000
         19.41959000
          9.82889900
          5.01681000
          2.48709100
          1.19878000
          0.55869500
          0.20936600
          0.08472200
          0.03327800
  0.0001150000 -0.0000400000  0.0000090000  0.0000120000  0.0000000000
  0.0005600000 -0.0001940000  0.0000460000  0.0000590000  0.0000000000
  0.0026530000 -0.0009220000  0.0002190000  0.0002770000  0.0000000000
  0.0106120000 -0.0037110000  0.0008780000  0.0011210000  0.0000000000
  0.0358670000 -0.0127060000  0.0030300000  0.0038200000  0.0000000000
  0.0993240000 -0.0361210000  0.0085680000  0.0109400000  0.0000000000
  0.2135250000 -0.0805400000  0.0193430000  0.0243010000  0.0000000000
  0.3339970000 -0.1323120000  0.0315600000  0.0405940000  0.0000000000
  0.3282920000 -0.1340350000  0.0330560000  0.0407730000  0.0000000000
  0.1505820000  0.0347070000 -0.0135900000 -0.0134400000  0.0000000000
  0.0200020000  0.3356300000 -0.0940090000 -0.1211060000  0.0000000000
 -0.0015630000  0.4612780000 -0.1498470000 -0.1827370000  0.0000000000
 -0.0012910000  0.2785730000 -0.0657160000 -0.1200720000  0.0000000000
 -0.0002120000  0.0412210000  0.2711740000  0.4449520000  0.0000000000
  0.0000240000 -0.0038000000  0.5750590000  0.6413430000  0.0000000000
 -0.0000090000  0.0014650000  0.3013730000  0.0579260000  1.0000000000
* d-type functions
    8    3
         89.47450000
         26.33680000
          9.53429000
          3.82118000
          1.57169000
          0.62642200
          0.23305500
          0.07630300
  0.0036170000 -0.0041240000  0.0000000000
  0.0255390000 -0.0290980000  0.0000000000
  0.0968340000 -0.1143160000  0.0000000000
  0.2351220000 -0.2719580000  0.0000000000
  0.3574460000 -0.3162730000  0.0000000000
  0.3691600000  0.0374570000  0.0000000000
  0.2380780000  0.5894820000  0.0000000000
  0.0547520000  0.3617680000  1.0000000000
* f-type functions
    2    1
          2.22110000
          0.52310000
  0.4235450000
  0.7741140000

/Mn.cc-pVDZ-DK.Balabanov.20s16p8d2f.6s5p3d1f.
N.B. Balabanov, K.A. Peterson. J. Chem. Phys. 125 (2006) 074110. doi:10.1063/1.2335444
MANGANESE (20s,16p,8d,2f) -> [6s,5p,3d,1f]
    25.0   3
* s-type functions
   20    6
    3960805.00000000
     593115.50000000
     134976.80000000
      38230.67000000
      12471.54000000
       4501.74300000
       1755.21200000
        727.30390000
        316.36780000
        143.00980000
         66.21805000
         29.91896000
         14.30318000
          6.83945100
          3.01237400
          1.41880800
          0.62362400
          0.13409800
          0.06554800
          0.02958400
  0.0001350000 -0.0000650000  0.0000160000 -0.0000040000 -0.0000070000  0.0000000000
  0.0003950000 -0.0001890000  0.0000460000 -0.0000100000 -0.0000210000  0.0000000000
  0.0010960000 -0.0005250000  0.0001280000 -0.0000290000 -0.0000570000  0.0000000000
  0.0028710000 -0.0013790000  0.0003370000 -0.0000750000 -0.0001530000  0.0000000000
  0.0075540000 -0.0036420000  0.0008910000 -0.0001990000 -0.0003900000  0.0000000000
  0.0199750000 -0.0097110000  0.0023910000 -0.0005330000 -0.0011070000  0.0000000000
  0.0515080000 -0.0254890000  0.0063340000 -0.0014130000 -0.0027160000  0.0000000000
  0.1210030000 -0.0622590000  0.0158660000 -0.0035420000 -0.0075260000  0.0000000000
  0.2360360000 -0.1322860000  0.0352360000 -0.0078710000 -0.0146430000  0.0000000000
  0.3264820000 -0.2204590000  0.0645450000 -0.0144660000 -0.0324340000  0.0000000000
  0.2393020000 -0.2215130000  0.0730570000 -0.0164250000 -0.0252390000  0.0000000000
  0.0718200000  0.0493360000 -0.0257370000  0.0057620000 -0.0086680000  0.0000000000
  0.0759500000  0.5165030000 -0.3026850000  0.0712660000  0.1951750000  0.0000000000
  0.0750300000  0.4900740000 -0.4440650000  0.1094140000  0.1474640000  0.0000000000
  0.0118360000  0.0845860000  0.1409020000 -0.0428130000  0.0703750000  0.0000000000
 -0.0003590000 -0.0068570000  0.7189900000 -0.2293830000 -1.0667770000  0.0000000000
 -0.0000620000 -0.0004660000  0.3952070000 -0.2461200000  0.3723110000  0.0000000000
 -0.0000140000 -0.0005260000  0.0198510000  0.3096530000  1.9872070000  0.0000000000
  0.0000260000  0.0004990000 -0.0077830000  0.5658570000 -1.2893930000  0.0000000000
  0.0000000000 -0.0000870000  0.0031750000  0.2782580000 -0.5130850000  1.0000000000
* p-type functions
   16    5
      16205.86000000
       3836.27400000
       1246.04800000
        476.75350000
        202.18950000
         92.09487000
         44.14720000
         21.85468000
         11.08596000
          5.67410800
          2.82317000
          1.36862100
          0.64443100
          0.24834600
          0.09717500
          0.03656500
  0.0001180000 -0.0000410000 -0.0000090000  0.0000130000  0.0000000000
  0.0005550000 -0.0001930000 -0.0000440000  0.0000600000  0.0000000000
  0.0025910000 -0.0009030000 -0.0002080000  0.0002790000  0.0000000000
  0.0102970000 -0.0036140000 -0.0008320000  0.0011270000  0.0000000000
  0.0348120000 -0.0123730000 -0.0028570000  0.0038180000  0.0000000000
  0.0968140000 -0.0353410000 -0.0081640000  0.0110610000  0.0000000000
  0.2099030000 -0.0794990000 -0.0184550000  0.0245850000  0.0000000000
  0.3319070000 -0.1321930000 -0.0307730000  0.0420330000  0.0000000000
  0.3311790000 -0.1356890000 -0.0319990000  0.0418110000  0.0000000000
  0.1557000000  0.0301330000  0.0107510000 -0.0108470000  0.0000000000
  0.0209060000  0.3310290000  0.0908940000 -0.1265590000  0.0000000000
 -0.0028140000  0.4567780000  0.1379450000 -0.1789830000  0.0000000000
 -0.0021480000  0.2859100000  0.0761120000 -0.1260670000  0.0000000000
 -0.0003790000  0.0465830000 -0.2313460000  0.4203830000  0.0000000000
  0.0000360000 -0.0033840000 -0.5751700000  0.6578380000  0.0000000000
 -0.0000140000  0.0014170000 -0.3477560000  0.0748230000  1.0000000000
* d-type functions
    8    3
        101.90400000
         30.03370000
         10.92380000
          4.39740000
          1.81595000
          0.72573100
          0.26996100
          0.08776000
  0.0035750000 -0.0036460000  0.0000000000
  0.0255750000 -0.0260790000  0.0000000000
  0.0977470000 -0.1024550000  0.0000000000
  0.2370560000 -0.2488950000  0.0000000000
  0.3579230000 -0.3018870000  0.0000000000
  0.3658070000  0.0083690000  0.0000000000
  0.2362960000  0.5397650000  0.0000000000
  0.0583510000  0.4497430000  1.0000000000
* f-type functions
    2    1
          2.70320000
          0.64380000
  0.4267760000
  0.7697990000

/Fe.cc-pVDZ-DK.Balabanov.20s16p8d2f.6s5p3d1f.
N.B. Balabanov, K.A. Peterson. J. Chem. Phys. 125 (2006) 074110. doi:10.1063/1.2335444
IRON (20s,16p,8d,2f) -> [6s,5p,3d,1f]
    26.0   3
* s-type functions
   20    6
    4316265.00000000
     646342.40000000
     147089.70000000
      41661.52000000
      13590.77000000
       4905.75000000
       1912.74600000
        792.60430000
        344.80650000
        155.89990000
         72.23091000
         32.72506000
         15.66762000
          7.50348300
          3.31222300
          1.55847100
          0.68391400
          0.14675700
          0.07058300
          0.03144900
  0.0001400000 -0.0000720000  0.0000170000 -0.0000040000 -0.0000070000  0.0000000000
  0.0004050000 -0.0002090000  0.0000490000 -0.0000110000 -0.0000210000  0.0000000000
  0.0011190000 -0.0005790000  0.0001350000 -0.0000290000 -0.0000580000  0.0000000000
  0.0029070000 -0.0015060000  0.0003520000 -0.0000770000 -0.0001550000  0.0000000000
  0.0075710000 -0.0039390000  0.0009230000 -0.0002010000 -0.0003930000  0.0000000000
  0.0198180000 -0.0103960000  0.0024520000 -0.0005350000 -0.0011010000  0.0000000000
  0.0507340000 -0.0270740000  0.0064510000 -0.0014080000 -0.0026930000  0.0000000000
  0.1187290000 -0.0657770000  0.0161060000 -0.0035180000 -0.0074040000  0.0000000000
  0.2311640000 -0.1390820000  0.0357420000 -0.0078140000 -0.0144840000  0.0000000000
  0.3193220000 -0.2301500000  0.0655280000 -0.0143720000 -0.0318530000  0.0000000000
  0.2336480000 -0.2296630000  0.0744300000 -0.0163830000 -0.0253520000  0.0000000000
  0.0740220000  0.0460910000 -0.0257110000  0.0056430000 -0.0078870000  0.0000000000
  0.0909520000  0.5150510000 -0.3086450000  0.0712210000  0.1914700000  0.0000000000
  0.0888980000  0.4871750000 -0.4465440000  0.1078000000  0.1482420000  0.0000000000
  0.0143020000  0.0843800000  0.1489850000 -0.0442620000  0.0507610000  0.0000000000
 -0.0003870000 -0.0059110000  0.7203950000 -0.2259990000 -1.0122460000  0.0000000000
  0.0000080000 -0.0000440000  0.3896980000 -0.2376280000  0.3423390000  0.0000000000
 -0.0000250000 -0.0004870000  0.0191840000  0.2977800000  1.8572660000  0.0000000000
  0.0000320000  0.0004370000 -0.0070230000  0.5654970000 -1.0636790000  0.0000000000
 -0.0000010000 -0.0000860000  0.0031240000  0.2879370000 -0.6168730000  1.0000000000
* p-type functions
   16    5
      17745.69000000
       4200.72100000
       1364.42900000
        522.08060000
        221.45950000
        100.90960000
         48.40115000
         23.98536000
         12.18250000
          6.24229800
          3.11094400
          1.50995800
          0.71084500
          0.27259800
          0.10397200
          0.03816600
  0.0001230000 -0.0000430000  0.0000090000  0.0000140000  0.0000000000
  0.0005660000 -0.0002000000  0.0000440000  0.0000660000  0.0000000000
  0.0026080000 -0.0009230000  0.0002010000  0.0003030000  0.0000000000
  0.0102950000 -0.0036680000  0.0008000000  0.0012190000  0.0000000000
  0.0347510000 -0.0125390000  0.0027380000  0.0041200000  0.0000000000
  0.0966900000 -0.0358480000  0.0078480000  0.0119530000  0.0000000000
  0.2100300000 -0.0808220000  0.0177390000  0.0266200000  0.0000000000
  0.3324570000 -0.1346970000  0.0297490000  0.0456990000  0.0000000000
  0.3307710000 -0.1369120000  0.0303890000  0.0450330000  0.0000000000
  0.1547330000  0.0337130000 -0.0107650000 -0.0130110000  0.0000000000
  0.0209640000  0.3356700000 -0.0876890000 -0.1413750000  0.0000000000
 -0.0023460000  0.4554960000 -0.1284700000 -0.1941480000  0.0000000000
 -0.0018540000  0.2817600000 -0.0739960000 -0.1017700000  0.0000000000
 -0.0003170000  0.0451500000  0.2154550000  0.4678640000  0.0000000000
  0.0000300000 -0.0031650000  0.5720050000  0.6242180000  0.0000000000
 -0.0000120000  0.0013310000  0.3680790000  0.0562250000  1.0000000000
* d-type functions
    8    3
        114.88400000
         33.88780000
         12.37300000
          4.99925000
          2.07043000
          0.82818300
          0.30754700
          0.09945500
  0.0035320000 -0.0038960000  0.0000000000
  0.0255500000 -0.0282070000  0.0000000000
  0.0983570000 -0.1115730000  0.0000000000
  0.2379190000 -0.2728390000  0.0000000000
  0.3565390000 -0.3171520000  0.0000000000
  0.3628480000  0.0520620000  0.0000000000
  0.2388030000  0.5612690000  0.0000000000
  0.0619040000  0.3891550000  1.0000000000
* f-type functions
    2    1
          3.22430000
          0.77580000
  0.4222490000
  0.7714680000

/Co.cc-pVDZ-DK.Balabanov.20s16p8d2f.6s5p3d1f.
N.B. Balabanov, K.A. Peterson. J. Chem. Phys. 125 (2006) 074110. doi:10.1063/1.2335444
COBALT (20s,16p,8d,2f) -> [6s,5p,3d,1f]
    27.0   3
* s-type functions
   20    6
    4675675.00000000
     700161.50000000
     159337.30000000
      45130.46000000
      14722.38000000
       5314.22200000
       2072.01800000
        858.61880000
        373.54970000
        168.92290000
         78.29639000
         35.52123000
         17.04144000
          8.17300000
          3.61031800
          1.69704700
          0.74353200
          0.15834400
          0.07503600
          0.03309100
  0.0001460000 -0.0000770000  0.0000180000 -0.0000040000 -0.0000070000  0.0000000000
  0.0004220000 -0.0002220000  0.0000520000 -0.0000110000 -0.0000220000  0.0000000000
  0.0011570000 -0.0006100000  0.0001420000 -0.0000300000 -0.0000590000  0.0000000000
  0.0029820000 -0.0015760000  0.0003670000 -0.0000780000 -0.0001550000  0.0000000000
  0.0076950000 -0.0040850000  0.0009540000 -0.0002040000 -0.0003910000  0.0000000000
  0.0199530000 -0.0106780000  0.0025120000 -0.0005360000 -0.0010810000  0.0000000000
  0.0507170000 -0.0276130000  0.0065640000 -0.0014020000 -0.0026380000  0.0000000000
  0.1182300000 -0.0668160000  0.0163310000 -0.0034900000 -0.0071860000  0.0000000000
  0.2298040000 -0.1409790000  0.0361860000 -0.0077400000 -0.0141410000  0.0000000000
  0.3172830000 -0.2329210000  0.0663520000 -0.0142400000 -0.0308010000  0.0000000000
  0.2323250000 -0.2320460000  0.0753430000 -0.0162270000 -0.0250300000  0.0000000000
  0.0748630000  0.0465530000 -0.0264870000  0.0056920000 -0.0064990000  0.0000000000
  0.0946490000  0.5169650000 -0.3148050000  0.0711360000  0.1848310000  0.0000000000
  0.0916250000  0.4848400000 -0.4467120000  0.1054210000  0.1464850000  0.0000000000
  0.0146600000  0.0832890000  0.1601200000 -0.0461870000  0.0302550000  0.0000000000
 -0.0004140000 -0.0058110000  0.7213240000 -0.2220020000 -0.9422380000  0.0000000000
  0.0000050000 -0.0000540000  0.3823570000 -0.2286240000  0.3006350000  0.0000000000
 -0.0000280000 -0.0004680000  0.0181880000  0.2913320000  1.7414180000  0.0000000000
  0.0000290000  0.0003890000 -0.0064150000  0.5630580000 -0.8549780000  0.0000000000
 -0.0000030000 -0.0000890000  0.0029870000  0.2942770000 -0.7178920000  1.0000000000
* p-type functions
   16    5
      19267.78000000
       4560.98600000
       1481.43600000
        566.86710000
        240.49100000
        109.61050000
         52.59491000
         26.08361000
         13.26143000
          6.79977800
          3.39341400
          1.64876600
          0.77628200
          0.29720900
          0.11335200
          0.04151000
  0.0001300000 -0.0000460000 -0.0000100000  0.0000160000  0.0000000000
  0.0005820000 -0.0002080000 -0.0000460000  0.0000720000  0.0000000000
  0.0026480000 -0.0009470000 -0.0002090000  0.0003260000  0.0000000000
  0.0103810000 -0.0037380000 -0.0008250000  0.0012980000  0.0000000000
  0.0349630000 -0.0127500000 -0.0028170000  0.0043920000  0.0000000000
  0.0972290000 -0.0364470000 -0.0080680000  0.0127000000  0.0000000000
  0.2112480000 -0.0822350000 -0.0182680000  0.0284240000  0.0000000000
  0.3338520000 -0.1369990000 -0.0305860000  0.0485330000  0.0000000000
  0.3297510000 -0.1371210000 -0.0308830000  0.0477520000  0.0000000000
  0.1522940000  0.0393210000  0.0123030000 -0.0166520000  0.0000000000
  0.0202650000  0.3412260000  0.0904310000 -0.1536670000  0.0000000000
 -0.0022850000  0.4536340000  0.1308200000 -0.2056630000  0.0000000000
 -0.0018110000  0.2761140000  0.0692110000 -0.0721800000  0.0000000000
 -0.0002960000  0.0436650000 -0.2248820000  0.4831410000  0.0000000000
  0.0000280000 -0.0030700000 -0.5696560000  0.5994720000  0.0000000000
 -0.0000110000  0.0012920000 -0.3618730000  0.0560000000  1.0000000000
* d-type functions
    8    3
        128.39200000
         37.89380000
         13.87980000
          5.62544000
          2.33539000
          0.93519200
          0.34695300
          0.11172300
  0.0035050000 -0.0040650000  0.0000000000
  0.0255830000 -0.0297290000  0.0000000000
  0.0990840000 -0.1184660000  0.0000000000
  0.2391390000 -0.2897200000  0.0000000000
  0.3561510000 -0.3203480000  0.0000000000
  0.3604140000  0.0856800000  0.0000000000
  0.2392120000  0.5591230000  0.0000000000
  0.0641610000  0.3634010000  1.0000000000
* f-type functions
    2    1
          3.77240000
          0.91700000
  0.4239660000
  0.7684290000

/Ni.cc-pVDZ-DK.Balabanov.20s16p8d2f.6s5p3d1f.
N.B. Balabanov, K.A. Peterson. J. Chem. Phys. 125 (2006) 074110. doi:10.1063/1.2335444
NICKEL (20s,16p,8d,2f) -> [6s,5p,3d,1f]
    28.0   3
* s-type functions
   20    6
    5045991.00000000
     755614.20000000
     171956.80000000
      48704.79000000
      15888.41000000
       5735.12300000
       2236.13700000
        926.64680000
        403.17430000
        182.34760000
         84.54885000
         38.39634000
         18.45859000
          8.86354800
          3.91622700
          1.83887000
          0.80436200
          0.16979700
          0.07930600
          0.03467700
  0.0001570000 -0.0000710000  0.0000190000 -0.0000040000 -0.0000080000  0.0000000000
  0.0004530000 -0.0002060000  0.0000540000 -0.0000110000 -0.0000230000  0.0000000000
  0.0012370000 -0.0005620000  0.0001480000 -0.0000310000 -0.0000620000  0.0000000000
  0.0031650000 -0.0014420000  0.0003810000 -0.0000810000 -0.0001630000  0.0000000000
  0.0080950000 -0.0037060000  0.0009810000 -0.0002080000 -0.0004080000  0.0000000000
  0.0208040000 -0.0096110000  0.0025590000 -0.0005430000 -0.0011120000  0.0000000000
  0.0525340000 -0.0247360000  0.0066410000 -0.0014080000 -0.0027090000  0.0000000000
  0.1221290000 -0.0599030000  0.0164600000 -0.0034930000 -0.0073090000  0.0000000000
  0.2376390000 -0.1273860000  0.0364190000 -0.0077330000 -0.0144650000  0.0000000000
  0.3303120000 -0.2141810000  0.0667320000 -0.0142230000 -0.0311820000  0.0000000000
  0.2459140000 -0.2183240000  0.0757390000 -0.0161810000 -0.0258350000  0.0000000000
  0.0722760000  0.0525980000 -0.0275100000  0.0058410000 -0.0053470000  0.0000000000
  0.0635120000  0.5249320000 -0.3190460000  0.0715790000  0.1860150000  0.0000000000
  0.0618840000  0.4880070000 -0.4449190000  0.1037370000  0.1546580000  0.0000000000
  0.0094000000  0.0824840000  0.1724220000 -0.0483150000  0.0114970000  0.0000000000
 -0.0002190000 -0.0067950000  0.7155720000 -0.2193040000 -0.9445660000  0.0000000000
 -0.0000790000 -0.0006430000  0.3791720000 -0.2208170000  0.3343100000  0.0000000000
 -0.0000050000 -0.0004920000  0.0199360000  0.2869700000  1.6418710000  0.0000000000
  0.0000030000  0.0003540000 -0.0074760000  0.5599800000 -0.7399980000  0.0000000000
  0.0000000000 -0.0001060000  0.0032710000  0.2994010000 -0.7532470000  1.0000000000
* p-type functions
   16    5
      21027.92000000
       4977.56000000
       1616.74000000
        618.67180000
        262.51830000
        119.69070000
         57.46585000
         28.52829000
         14.52148000
          7.45385000
          3.72355300
          1.80981300
          0.85133600
          0.32340580
          0.11902100
          0.04216200
  0.0001350000 -0.0000480000  0.0000100000  0.0000200000  0.0000000000
  0.0005920000 -0.0002120000  0.0000430000  0.0000880000  0.0000000000
  0.0026560000 -0.0009520000  0.0001930000  0.0003950000  0.0000000000
  0.0103370000 -0.0037330000  0.0007600000  0.0015560000  0.0000000000
  0.0347520000 -0.0127070000  0.0025820000  0.0052820000  0.0000000000
  0.0967040000 -0.0363710000  0.0074280000  0.0152130000  0.0000000000
  0.2106590000 -0.0822820000  0.0167980000  0.0343730000  0.0000000000
  0.3338280000 -0.1376490000  0.0283950000  0.0584340000  0.0000000000
  0.3302200000 -0.1371660000  0.0281620000  0.0589690000  0.0000000000
  0.1528010000  0.0402870000 -0.0111460000 -0.0229370000  0.0000000000
  0.0201490000  0.3422120000 -0.0833490000 -0.1978840000  0.0000000000
 -0.0027090000  0.4496570000 -0.1160880000 -0.2473250000  0.0000000000
 -0.0021100000  0.2777700000 -0.0700600000  0.0095690000  0.0000000000
 -0.0003520000  0.0464150000  0.1995030000  0.5450030000  0.0000000000
  0.0000360000 -0.0029490000  0.5660100000  0.5235180000  0.0000000000
 -0.0000120000  0.0012920000  0.3926790000  0.0357030000  1.0000000000
* d-type functions
    8    3
        142.59040000
         42.10219000
         15.46337000
          6.28381000
          2.61417000
          1.04802000
          0.38865200
          0.12466400
  0.0033890000 -0.0035270000  0.0000000000
  0.0249280000 -0.0259470000  0.0000000000
  0.0970560000 -0.1036600000  0.0000000000
  0.2338120000 -0.2523870000  0.0000000000
  0.3466580000 -0.2967270000  0.0000000000
  0.3517990000 -0.0005790000  0.0000000000
  0.2521850000  0.4403890000  0.0000000000
  0.1015510000  0.5415980000  1.0000000000
* f-type functions
    2    1
          4.34550000
          1.06800000
  0.4174290000
  0.7714830000

/Cu.cc-pVDZ-DK.Balabanov.20s16p8d2f.6s5p3d1f.
N.B. Balabanov, K.A. Peterson. J. Chem. Phys. 125 (2006) 074110. doi:10.1063/1.2335444
COPPER (20s,16p,8d,2f) -> [6s,5p,3d,1f]
    29.0   3
* s-type functions
   20    6
    5430321.00000000
     813166.50000000
     185054.40000000
      52414.66000000
      17098.68000000
       6171.99400000
       2406.48100000
        997.25840000
        433.92890000
        196.28690000
         91.04280000
         41.38425000
         19.93278000
          9.58189100
          4.23451600
          1.98581400
          0.86708300
          0.18133900
          0.08365700
          0.03626700
  0.0001580000 -0.0000890000  0.0000200000 -0.0000040000 -0.0000080000  0.0000000000
  0.0004520000 -0.0002550000  0.0000570000 -0.0000120000 -0.0000220000  0.0000000000
  0.0012290000 -0.0006940000  0.0001560000 -0.0000320000 -0.0000590000  0.0000000000
  0.0031200000 -0.0017660000  0.0003990000 -0.0000820000 -0.0001520000  0.0000000000
  0.0079120000 -0.0044980000  0.0010190000 -0.0002080000 -0.0003780000  0.0000000000
  0.0201420000 -0.0115450000  0.0026360000 -0.0005390000 -0.0010180000  0.0000000000
  0.0504620000 -0.0294180000  0.0067920000 -0.0013880000 -0.0024730000  0.0000000000
  0.1166160000 -0.0705170000  0.0167720000 -0.0034300000 -0.0066140000  0.0000000000
  0.2255430000 -0.1477880000  0.0370240000 -0.0075790000 -0.0131520000  0.0000000000
  0.3101520000 -0.2423800000  0.0678320000 -0.0139340000 -0.0280830000  0.0000000000
  0.2261390000 -0.2390600000  0.0767680000 -0.0158250000 -0.0236610000  0.0000000000
  0.0769920000  0.0476930000 -0.0285880000  0.0058910000 -0.0036580000  0.0000000000
  0.1087550000  0.5194670000 -0.3262330000  0.0706480000  0.1674510000  0.0000000000
  0.1029690000  0.4781070000 -0.4451460000  0.1003460000  0.1378490000  0.0000000000
  0.0162990000  0.0805580000  0.1815320000 -0.0494610000  0.0016950000  0.0000000000
 -0.0005390000 -0.0056280000  0.7219160000 -0.2136180000 -0.7988610000  0.0000000000
 -0.0000020000 -0.0000720000  0.3686320000 -0.2122030000  0.2036390000  0.0000000000
 -0.0000380000 -0.0004330000  0.0163950000  0.2812990000  1.5496910000  0.0000000000
  0.0000260000  0.0003080000 -0.0055260000  0.5560680000 -0.4950240000  0.0000000000
 -0.0000090000 -0.0000990000  0.0027000000  0.3067010000 -0.8961200000  1.0000000000
* p-type functions
   16    5
      22760.57000000
       5387.67900000
       1749.94500000
        669.66530000
        284.19480000
        129.60770000
         62.25415000
         30.92964000
         15.75827000
          8.09421100
          4.04692100
          1.96786900
          0.92529500
          0.35109300
          0.12679900
          0.04416200
  0.0001410000 -0.0000510000  0.0000100000  0.0000190000  0.0000000000
  0.0006050000 -0.0002200000  0.0000430000  0.0000830000  0.0000000000
  0.0026840000 -0.0009770000  0.0001900000  0.0003680000  0.0000000000
  0.0103700000 -0.0038030000  0.0007430000  0.0014470000  0.0000000000
  0.0347760000 -0.0129160000  0.0025150000  0.0048660000  0.0000000000
  0.0967260000 -0.0369520000  0.0072460000  0.0141210000  0.0000000000
  0.2108770000 -0.0837090000  0.0163750000  0.0316400000  0.0000000000
  0.3341900000 -0.1400770000  0.0277810000  0.0545670000  0.0000000000
  0.3295570000 -0.1384230000  0.0271200000  0.0530450000  0.0000000000
  0.1519250000  0.0434860000 -0.0112260000 -0.0199460000  0.0000000000
  0.0205070000  0.3460780000 -0.0814740000 -0.1835090000  0.0000000000
 -0.0019660000  0.4512300000 -0.1106180000 -0.2173260000  0.0000000000
 -0.0016310000  0.2726370000 -0.0686690000 -0.0282170000  0.0000000000
 -0.0002570000  0.0424640000  0.1921350000  0.5289300000  0.0000000000
  0.0000250000 -0.0027690000  0.5631450000  0.5575620000  0.0000000000
 -0.0000090000  0.0011370000  0.4044540000  0.0366260000  1.0000000000
* d-type functions
    8    3
        177.68500000
         52.54040000
         19.47690000
          8.00146000
          3.39892000
          1.40538000
          0.54533000
          0.18811000
  0.0027090000 -0.0033770000  0.0000000000
  0.0206850000 -0.0258190000  0.0000000000
  0.0836260000 -0.1072400000  0.0000000000
  0.2129230000 -0.2805410000  0.0000000000
  0.3355660000 -0.3487320000  0.0000000000
  0.3581080000  0.0216090000  0.0000000000
  0.2664410000  0.4916130000  0.0000000000
  0.1059690000  0.4408030000  1.0000000000
* f-type functions
    2    1
          5.02860000
          1.25940000
  0.4242800000
  0.7630250000

/Zn.cc-pVDZ-DK.Balabanov.20s16p8d2f.6s5p3d1f.
N.B. Balabanov, K.A. Peterson. J. Chem. Phys. 125 (2006) 074110. doi:10.1063/1.2335444
ZINC (20s,16p,8d,2f) -> [6s,5p,3d,1f]
    30.0   3
* s-type functions
   20    6
    5820021.00000000
     871523.40000000
     198335.00000000
      56176.31000000
      18325.82000000
       6614.95500000
       2579.19900000
       1068.84900000
        465.10450000
        210.41300000
         97.61629000
         44.38020000
         21.42308000
         10.30891000
          4.55364500
          2.13282100
          0.92969700
          0.19214700
          0.08759500
          0.03770200
  0.0001810000 -0.0000570000  0.0000220000  0.0000040000 -0.0000120000  0.0000000000
  0.0005170000 -0.0001630000  0.0000620000  0.0000130000 -0.0000340000  0.0000000000
  0.0013980000 -0.0004420000  0.0001680000  0.0000340000 -0.0000920000  0.0000000000
  0.0035270000 -0.0011190000  0.0004250000  0.0000860000 -0.0002360000  0.0000000000
  0.0088750000 -0.0028350000  0.0010750000  0.0002180000 -0.0005790000  0.0000000000
  0.0224190000 -0.0072510000  0.0027590000  0.0005590000 -0.0015670000  0.0000000000
  0.0558730000 -0.0185310000  0.0070580000  0.0014290000 -0.0037110000  0.0000000000
  0.1290790000 -0.0451410000  0.0173590000  0.0035270000 -0.0101370000  0.0000000000
  0.2514150000 -0.0983060000  0.0381960000  0.0077430000 -0.0194410000  0.0000000000
  0.3533410000 -0.1733870000  0.0698660000  0.0143060000 -0.0435090000  0.0000000000
  0.2703150000 -0.1868340000  0.0785690000  0.0160020000 -0.0328970000  0.0000000000
  0.0652220000  0.0652290000 -0.0304770000 -0.0059930000 -0.0116540000  0.0000000000
 -0.0012330000  0.5320160000 -0.3364460000 -0.0737340000  0.2749530000  0.0000000000
  0.0017950000  0.4835280000 -0.4468440000 -0.0999900000  0.1925200000  0.0000000000
 -0.0008220000  0.0815730000  0.1925050000  0.0503190000 -0.0335680000  0.0000000000
  0.0003480000 -0.0016950000  0.7303950000  0.2265840000 -1.3737440000  0.0000000000
 -0.0001310000  0.0018290000  0.3557030000  0.2085750000  0.8944720000  0.0000000000
  0.0000440000 -0.0003330000  0.0116980000 -0.3426590000  1.6527400000  0.0000000000
 -0.0000340000  0.0002590000 -0.0051350000 -0.5537360000 -1.4224370000  0.0000000000
  0.0000110000 -0.0000820000  0.0013190000 -0.2538460000 -0.1849890000  1.0000000000
* p-type functions
   16    5
      24411.98000000
       5778.51800000
       1876.86200000
        718.23610000
        304.83270000
        139.04530000
         66.80417000
         33.20699000
         16.92816000
          8.69622900
          4.35051000
          2.11652300
          0.99538700
          0.37563900
          0.13388500
          0.04602300
  0.0001480000 -0.0000560000  0.0000100000  0.0000180000  0.0000000000
  0.0006240000 -0.0002340000  0.0000430000  0.0000750000  0.0000000000
  0.0027340000 -0.0010300000  0.0001900000  0.0003250000  0.0000000000
  0.0104840000 -0.0039780000  0.0007360000  0.0012800000  0.0000000000
  0.0350530000 -0.0134720000  0.0024840000  0.0042430000  0.0000000000
  0.0973300000 -0.0384660000  0.0071540000  0.0124460000  0.0000000000
  0.2119030000 -0.0870240000  0.0161380000  0.0274640000  0.0000000000
  0.3346760000 -0.1450960000  0.0273510000  0.0481910000  0.0000000000
  0.3270750000 -0.1409790000  0.0261260000  0.0439460000  0.0000000000
  0.1493830000  0.0487290000 -0.0120490000 -0.0163250000  0.0000000000
  0.0223870000  0.3525240000 -0.0803120000 -0.1593140000  0.0000000000
  0.0015560000  0.4523900000 -0.1062960000 -0.1756920000  0.0000000000
  0.0004640000  0.2638190000 -0.0655610000 -0.0747810000  0.0000000000
  0.0000630000  0.0375680000  0.1890660000  0.4845400000  0.0000000000
 -0.0000010000 -0.0024730000  0.5603730000  0.6147430000  0.0000000000
  0.0000000000  0.0010020000  0.4113870000  0.0429210000  1.0000000000
* d-type functions
    8    3
        210.94730000
         62.39151000
         23.26482000
          9.62334200
          4.13941800
          1.74407900
          0.69532500
          0.24872400
  0.0023530000  0.0032890000  0.0000000000
  0.0183840000  0.0258270000  0.0000000000
  0.0762730000  0.1099330000  0.0000000000
  0.2008410000  0.3017170000  0.0000000000
  0.3289980000  0.3873400000  0.0000000000
  0.3618560000 -0.0503910000  0.0000000000
  0.2736090000 -0.5385100000  0.0000000000
  0.1071070000 -0.3501940000  1.0000000000
* f-type functions
    2    1
          5.73440000
          1.46150000
  0.4311320000
  0.7546420000

/Ga.cc-pVDZ-DK.de_Jong.14s11p6d.5s4p2d.
W.A. de Jong, R.J. Harrison, D.A. Dixon. J. Chem. Phys. 114 (2001) 48. doi:10.1063/1.1329891
GALLIUM (14s,11p,6d) -> [5s,4p,2d]
    31.0   2
* s-type functions
   14    5
     485130.00000000
      72719.00000000
      16552.00000000
       4687.80000000
       1529.10000000
        551.81000000
        215.18000000
         88.17400000
         27.15400000
         11.50300000
          3.30180000
          1.33140000
          0.19316000
          0.07089500
  0.0013097000 -0.0004160000  0.0001593000 -0.0000373000  0.0000000000
  0.0042304000 -0.0013449000  0.0005160000 -0.0001210000  0.0000000000
  0.0135763000 -0.0043931000  0.0016807000 -0.0003938000  0.0000000000
  0.0420738000 -0.0136663000  0.0052800000 -0.0012403000  0.0000000000
  0.1209279000 -0.0422161000  0.0162205000 -0.0038013000  0.0000000000
  0.2811356000 -0.1060421000  0.0420676000 -0.0099195000  0.0000000000
  0.4145769000 -0.2173004000  0.0870166000 -0.0204949000  0.0000000000
  0.2627881000 -0.1557063000  0.0713209000 -0.0171910000  0.0000000000
  0.0267308000  0.5087565000 -0.3166603000  0.0794842000  0.0000000000
 -0.0059120000  0.6055109000 -0.5016645000  0.1308055000  0.0000000000
  0.0019289000  0.0630324000  0.6231687000 -0.2053080000  0.0000000000
 -0.0008685000 -0.0111518000  0.6387462000 -0.3400769000  0.0000000000
  0.0002129000  0.0025222000  0.0241123000  0.6684935000  0.0000000000
 -0.0000995000 -0.0011597000 -0.0080813000  0.4803321000  1.0000000000
* p-type functions
   11    4
       3248.60000000
        769.97000000
        248.20000000
         93.36400000
         38.25100000
         16.42200000
          6.79180000
          2.83360000
          1.10620000
          0.22250000
          0.06177200
  0.0023193000 -0.0008874000  0.0001465000  0.0000000000
  0.0145804000 -0.0056024000  0.0009118000  0.0000000000
  0.0671577000 -0.0265035000  0.0044053000  0.0000000000
  0.2108447000 -0.0863366000  0.0140793000  0.0000000000
  0.4100132000 -0.1810175000  0.0307873000  0.0000000000
  0.3869628000 -0.1540846000  0.0234476000  0.0000000000
  0.1003698000  0.2426971000 -0.0438040000  0.0000000000
 -0.0007023000  0.5825372000 -0.1293398000  0.0000000000
  0.0020240000  0.3291624000 -0.0452572000  0.0000000000
 -0.0003111000  0.0166177000  0.4589807000  0.0000000000
  0.0001125000 -0.0030516000  0.6624033000  1.0000000000
* d-type functions
    6    2
         65.33700000
         18.49700000
          6.31500000
          2.16350000
          0.66675000
          0.18840000
  0.0276056000  0.0000000000
  0.1504624000  0.0000000000
  0.3718798000  0.0000000000
  0.4767142000  0.0000000000
  0.2888317000  0.0000000000
  0.0000000000  1.0000000000

/Ge.cc-pVDZ-DK.de_Jong.14s11p6d.5s4p2d.
W.A. de Jong, R.J. Harrison, D.A. Dixon. J. Chem. Phys. 114 (2001) 48. doi:10.1063/1.1329891
GERMANIUM (14s,11p,6d) -> [5s,4p,2d]
    32.0   2
* s-type functions
   14    5
     521800.00000000
      78214.00000000
      17803.00000000
       5041.90000000
       1644.50000000
        593.43000000
        231.36000000
         94.76200000
         29.27400000
         12.45000000
          3.64630000
          1.50250000
          0.24503000
          0.09159400
  0.0013545000 -0.0004324000  0.0001673000 -0.0000431000  0.0000000000
  0.0043368000 -0.0013859000  0.0005371000 -0.0001385000  0.0000000000
  0.0137737000 -0.0044796000  0.0017323000 -0.0004464000  0.0000000000
  0.0422244000 -0.0137917000  0.0053821000 -0.0013896000  0.0000000000
  0.1205387000 -0.0422959000  0.0164333000 -0.0042377000  0.0000000000
  0.2797639000 -0.1060358000  0.0424735000 -0.0110050000  0.0000000000
  0.4140442000 -0.2174391000  0.0881323000 -0.0228633000  0.0000000000
  0.2647524000 -0.1574393000  0.0725513000 -0.0191739000  0.0000000000
  0.0274127000  0.5053577000 -0.3179483000  0.0877598000  0.0000000000
 -0.0061635000  0.6069460000 -0.5102875000  0.1476913000  0.0000000000
  0.0020898000  0.0661739000  0.6035804000 -0.2227713000  0.0000000000
 -0.0009682000 -0.0119469000  0.6585984000 -0.3862311000  0.0000000000
  0.0002513000  0.0028039000  0.0275822000  0.6879566000  0.0000000000
 -0.0001145000 -0.0012596000 -0.0085591000  0.4819028000  1.0000000000
* p-type functions
   11    4
       3568.10000000
        845.72000000
        272.74000000
        102.68000000
         42.14800000
         18.14900000
          7.59340000
          3.19640000
          1.27430000
          0.28258000
          0.08409000
  0.0022875000 -0.0008882000  0.0001764000  0.0000000000
  0.0141414000 -0.0055198000  0.0010808000  0.0000000000
  0.0650543000 -0.0260390000  0.0052097000  0.0000000000
  0.2054327000 -0.0854320000  0.0167673000  0.0000000000
  0.4048634000 -0.1810507000  0.0370935000  0.0000000000
  0.3917531000 -0.1615851000  0.0297460000  0.0000000000
  0.1076081000  0.2271521000 -0.0497526000  0.0000000000
  0.0000667000  0.5824757000 -0.1583429000  0.0000000000
  0.0020508000  0.3400258000 -0.0576877000  0.0000000000
 -0.0003542000  0.0185783000  0.5113819000  0.0000000000
  0.0001274000 -0.0032135000  0.6101254000  1.0000000000
* d-type functions
    6    2
         74.76200000
         21.30200000
          7.34360000
          2.56510000
          0.81970000
          0.24700000
  0.0260609000  0.0000000000
  0.1449968000  0.0000000000
  0.3683757000  0.0000000000
  0.4817361000  0.0000000000
  0.2811764000  0.0000000000
  0.0000000000  1.0000000000

/As.cc-pVDZ-DK.de_Jong.14s11p6d.5s4p2d.
W.A. de Jong, R.J. Harrison, D.A. Dixon. J. Chem. Phys. 114 (2001) 48. doi:10.1063/1.1329891
ARSENIC (14s,11p,6d) -> [5s,4p,2d]
    33.0   2
* s-type functions
   14    5
     559583.79000000
      83879.33000000
      19092.66800000
       5407.39250000
       1763.75590000
        636.45672000
        248.08843000
        101.57851000
         31.47551300
         13.43728200
          4.00869000
          1.68492900
          0.30001900
          0.11358700
  0.0014013000 -0.0004495000  0.0001757000 -0.0000486000  0.0000000000
  0.0044486000 -0.0014287000  0.0005595000 -0.0001548000  0.0000000000
  0.0139886000 -0.0045720000  0.0017870000 -0.0004941000  0.0000000000
  0.0424243000 -0.0139322000  0.0054922000 -0.0015206000  0.0000000000
  0.1202641000 -0.0424122000  0.0166626000 -0.0046122000  0.0000000000
  0.2785625000 -0.1060837000  0.0429136000 -0.0119199000  0.0000000000
  0.4134804000 -0.2175965000  0.0892560000 -0.0248770000  0.0000000000
  0.2664488000 -0.1588867000  0.0737202000 -0.0208433000  0.0000000000
  0.0280529000  0.5022517000 -0.3195868000  0.0946246000  0.0000000000
 -0.0064051000  0.6081134000 -0.5186628000  0.1624831000  0.0000000000
  0.0022476000  0.0691645000  0.5869002000 -0.2367604000  0.0000000000
 -0.0010664000 -0.0126945000  0.6758274000 -0.4251399000  0.0000000000
  0.0002872000  0.0030317000  0.0308451000  0.6993766000  0.0000000000
 -0.0001277000 -0.0013344000 -0.0089084000  0.4891022000  1.0000000000
* p-type functions
   11    4
       3886.35640000
        921.20201000
        297.19319000
        111.97508000
         46.03462100
         19.87419400
          8.38608800
          3.55872800
          1.44728200
          0.34777900
          0.10769900
  0.0022777000 -0.0008976000  0.0002010000  0.0000000000
  0.0138538000 -0.0054919000  0.0012134000  0.0000000000
  0.0635719000 -0.0258156000  0.0058264000  0.0000000000
  0.2015077000 -0.0850995000  0.0188572000  0.0000000000
  0.4009896000 -0.1818059000  0.0420328000  0.0000000000
  0.3949007000 -0.1674091000  0.0349823000  0.0000000000
  0.1131266000  0.2171216000 -0.0543685000  0.0000000000
  0.0006550000  0.5827524000 -0.1812394000  0.0000000000
  0.0020826000  0.3456714000 -0.0677251000  0.0000000000
 -0.0003926000  0.0198946000  0.5418627000  0.0000000000
  0.0001396000 -0.0033767000  0.5814604000  1.0000000000
* d-type functions
    6    2
         84.42423400
         24.18158900
          8.40177700
          2.98050200
          0.97900300
          0.30980000
  0.0248871000  0.0000000000
  0.1408433000  0.0000000000
  0.3658120000  0.0000000000
  0.4858423000  0.0000000000
  0.2745897000  0.0000000000
  0.0000000000  1.0000000000

/Se.cc-pVDZ-DK.de_Jong.14s11p6d.5s4p2d.
W.A. de Jong, R.J. Harrison, D.A. Dixon. J. Chem. Phys. 114 (2001) 48. doi:10.1063/1.1329891
SELENIUM (14s,11p,6d) -> [5s,4p,2d]
    34.0   2
* s-type functions
   14    5
     598990.00000000
      89783.00000000
      20435.00000000
       5786.90000000
       1887.30000000
        680.97000000
        265.39000000
        108.63000000
         33.76000000
         14.46500000
          4.38900000
          1.87830000
          0.35859000
          0.13649000
  0.0014489000 -0.0004669000  0.0001844000 -0.0000541000  0.0000000000
  0.0045628000 -0.0014725000  0.0005825000 -0.0001708000  0.0000000000
  0.0142120000 -0.0046673000  0.0018435000 -0.0005407000  0.0000000000
  0.0426588000 -0.0140832000  0.0056076000 -0.0016456000  0.0000000000
  0.1200854000 -0.0425586000  0.0169028000 -0.0049639000  0.0000000000
  0.2775025000 -0.1061760000  0.0433741000 -0.0127666000  0.0000000000
  0.4128957000 -0.2177652000  0.0903678000 -0.0267464000  0.0000000000
  0.2679382000 -0.1601056000  0.0748254000 -0.0223732000  0.0000000000
  0.0286540000  0.4994239000 -0.3214743000  0.1009177000  0.0000000000
 -0.0066351000  0.6090549000 -0.5267116000  0.1765125000  0.0000000000
  0.0024007000  0.0719867000  0.5726054000 -0.2497688000  0.0000000000
 -0.0011618000 -0.0133886000  0.6909332000 -0.4606841000  0.0000000000
  0.0003199000  0.0032101000  0.0338020000  0.7161532000  0.0000000000
 -0.0001387000 -0.0013830000 -0.0090873000  0.4904097000  1.0000000000
* p-type functions
   11    4
       4135.60000000
        980.34000000
        316.35000000
        119.25000000
         49.06800000
         21.21200000
          8.94620000
          3.82360000
          1.58830000
          0.40969000
          0.12459000
  0.0023379000 -0.0009348000  0.0002272000  0.0000000000
  0.0140264000 -0.0056415000  0.0013520000  0.0000000000
  0.0640616000 -0.0264079000  0.0064727000  0.0000000000
  0.2025832000 -0.0868539000  0.0208788000  0.0000000000
  0.4020159000 -0.1852990000  0.0466043000  0.0000000000
  0.3934710000 -0.1678373000  0.0377736000  0.0000000000
  0.1118237000  0.2258849000 -0.0616710000  0.0000000000
  0.0001976000  0.5848647000 -0.2031585000  0.0000000000
  0.0021938000  0.3333638000 -0.0615782000  0.0000000000
 -0.0004502000  0.0192013000  0.5642068000  0.0000000000
  0.0001451000 -0.0024059000  0.5645254000  1.0000000000
* d-type functions
    6    2
         94.47200000
         27.18000000
          9.50680000
          3.41680000
          1.14790000
          0.36820000
  0.0239210000  0.0000000000
  0.1373683000  0.0000000000
  0.3636145000  0.0000000000
  0.4891696000  0.0000000000
  0.2695446000  0.0000000000
  0.0000000000  1.0000000000

/Br.cc-pVDZ-DK.de_Jong.14s11p6d.5s4p2d.
W.A. de Jong, R.J. Harrison, D.A. Dixon. J. Chem. Phys. 114 (2001) 48. doi:10.1063/1.1329891
BROMINE (14s,11p,6d) -> [5s,4p,2d]
    35.0   2
* s-type functions
   14    5
     640100.00000000
      95938.00000000
      21833.00000000
       6181.90000000
       2015.70000000
        727.10000000
        283.28000000
        115.91000000
         36.12400000
         15.53200000
          4.78570000
          2.08170000
          0.42028000
          0.16069000
  0.0014975000 -0.0004847000  0.0001934000 -0.0000594000  0.0000000000
  0.0046790000 -0.0015171000  0.0006061000 -0.0001862000  0.0000000000
  0.0144418000 -0.0047650000  0.0019013000 -0.0005842000  0.0000000000
  0.0429115000 -0.0142394000  0.0057252000 -0.0017594000  0.0000000000
  0.1199662000 -0.0427230000  0.0171467000 -0.0052775000  0.0000000000
  0.2765685000 -0.1063034000  0.0438439000 -0.0135105000  0.0000000000
  0.4123452000 -0.2179707000  0.0914657000 -0.0283958000  0.0000000000
  0.2692454000 -0.1611029000  0.0758503000 -0.0237009000  0.0000000000
  0.0292014000  0.4969454000 -0.3236072000  0.1064098000  0.0000000000
 -0.0068465000  0.6097180000 -0.5342763000  0.1891007000  0.0000000000
  0.0025447000  0.0746373000  0.5606421000 -0.2610726000  0.0000000000
 -0.0012523000 -0.0140451000  0.7038933000 -0.4911557000  0.0000000000
  0.0003501000  0.0033594000  0.0365738000  0.7279374000  0.0000000000
 -0.0001483000 -0.0014219000 -0.0092051000  0.4945182000  1.0000000000
* p-type functions
   11    4
       4340.80000000
       1028.90000000
        332.02000000
        125.16000000
         51.51100000
         22.28100000
          9.34170000
          4.01320000
          1.70020000
          0.47194000
          0.14421000
  0.0024399000 -0.0009895000  0.0002575000  0.0000000000
  0.0144672000 -0.0058989000  0.0015143000  0.0000000000
  0.0657058000 -0.0274975000  0.0072174000  0.0000000000
  0.2066720000 -0.0899166000  0.0231679000  0.0000000000
  0.4059657000 -0.1904809000  0.0513547000  0.0000000000
  0.3891806000 -0.1646354000  0.0394026000  0.0000000000
  0.1065845000  0.2467602000 -0.0732324000  0.0000000000
 -0.0008911000  0.5887509000 -0.2244175000  0.0000000000
  0.0023793000  0.3087593000 -0.0483259000  0.0000000000
 -0.0005441000  0.0173588000  0.5844251000  0.0000000000
  0.0001613000 -0.0013141000  0.5447257000  1.0000000000
* d-type functions
    6    2
        104.83000000
         30.27200000
         10.64900000
          3.86960000
          1.32390000
          0.40980000
  0.0231456000  0.0000000000
  0.1345643000  0.0000000000
  0.3619594000  0.0000000000
  0.4918818000  0.0000000000
  0.2654955000  0.0000000000
  0.0000000000  1.0000000000

/Kr.cc-pVDZ-DK.de_Jong.14s11p6d.5s4p2d.
W.A. de Jong, R.J. Harrison, D.A. Dixon. J. Chem. Phys. 114 (2001) 48. doi:10.1063/1.1329891
KRYPTON (14s,11p,6d) -> [5s,4p,2d]
    36.0   2
* s-type functions
   14    5
     681358.82000000
     102126.48000000
      23243.71000000
       6582.00730000
       2146.42860000
        774.33782000
        301.67020000
        123.41184000
         38.56755100
         16.63737900
          5.19879500
          2.29481400
          0.48521100
          0.18627000
  0.0015497000 -0.0005039000  0.0002029000 -0.0000647000  0.0000000000
  0.0048054000 -0.0015653000  0.0006313000 -0.0002014000  0.0000000000
  0.0147003000 -0.0048726000  0.0019633000 -0.0006267000  0.0000000000
  0.0432409000 -0.0144213000  0.0058529000 -0.0018679000  0.0000000000
  0.1199866000 -0.0429384000  0.0174067000 -0.0055678000  0.0000000000
  0.2757579000 -0.1064783000  0.0443249000 -0.0141811000  0.0000000000
  0.4117081000 -0.2181761000  0.0925281000 -0.0298753000  0.0000000000
  0.2703134000 -0.1618461000  0.0767653000 -0.0248636000  0.0000000000
  0.0297081000  0.4948090000 -0.3259352000  0.1113340000  0.0000000000
 -0.0070466000  0.6101302000 -0.5413562000  0.2005552000  0.0000000000
  0.0026830000  0.0770857000  0.5506909000 -0.2712672000  0.0000000000
 -0.0013394000 -0.0146504000  0.7150109000 -0.5176738000  0.0000000000
  0.0003785000  0.0034827000  0.0391776000  0.7367784000  0.0000000000
 -0.0001571000 -0.0014526000 -0.0092810000  0.4998019000  1.0000000000
* p-type functions
   11    4
       4474.26990000
       1060.57900000
        342.20812000
        128.99842000
         53.08722200
         22.95942500
          9.50730000
          4.08305500
          1.75044600
          0.52919000
          0.16436900
  0.0026041000 -0.0010711000  0.0002927000  0.0000000000
  0.0152953000 -0.0063199000  0.0017061000  0.0000000000
  0.0689661000 -0.0293225000  0.0080802000  0.0000000000
  0.2146664000 -0.0947917000  0.0257088000  0.0000000000
  0.4132312000 -0.1978290000  0.0560354000  0.0000000000
  0.3806383000 -0.1559430000  0.0387775000  0.0000000000
  0.0967660000  0.2843825000 -0.0909353000  0.0000000000
 -0.0024186000  0.5954400000 -0.2442700000  0.0000000000
  0.0025928000  0.2667969000 -0.0205985000  0.0000000000
 -0.0006595000  0.0123549000  0.6037619000  0.0000000000
  0.0002007000 -0.0009332000  0.5196277000  1.0000000000
* d-type functions
    6    2
        115.52532000
         33.46524600
         11.83045900
          4.33977100
          1.50752400
          0.50300000
  0.0225046000  0.0000000000
  0.1322817000  0.0000000000
  0.3606094000  0.0000000000
  0.4945214000  0.0000000000
  0.2606169000  0.0000000000
  0.0000000000  1.0000000000
