************************************************************************
* This file is part of OpenMolcas.                                     *
*                                                                      *
* OpenMolcas is free software; you can redistribute it and/or modify   *
* it under the terms of the GNU Lesser General Public License, v. 2.1. *
* OpenMolcas is distributed in the hope that it will be useful, but it *
* is provided "as is" and without any express or implied warranties.   *
* For more details see the full text of the license in the file        *
* LICENSE or in <http://www.gnu.org/licenses/>.                        *
************************************************************************

#Hamiltonian DKH
#Nucleus UNK
#Contraction CCC
#AllElectron AE_

************************************************************************
* This file has been generated from Basis Set Exchange data:           *
*   https://www.basissetexchange.org                                   *
* Version: 0  (Data from the original Basis Set Exchange)              *
************************************************************************

/Sc.cc-pwCVQZ-DK.Balabanov.24s20p13d4f3g2h.10s9p7d4f3g2h.
N.B. Balabanov, K.A. Peterson. J. Chem. Phys. 123 (2005) 064107. doi:10.1063/1.1998907
SCANDIUM (24s,20p,13d,4f,3g,2h) -> [10s,9p,7d,4f,3g,2h]
    21.0   5
* s-type functions
   24   10
    8417909.00000000
    1260312.00000000
     286798.40000000
      81234.69000000
      26503.11000000
       9568.70100000
       3732.49700000
       1548.42200000
        675.54200000
        307.25220000
        144.66720000
         70.04387000
         34.32250000
         15.61224000
          7.74372200
          3.84426000
          1.71976600
          0.83252300
          0.38556400
          0.09670000
          0.04777800
          0.02236300
          3.16720000
          1.68790000
  0.0000450000 -0.0000260000  0.0000050000 -0.0000010000 -0.0000020000 -0.0000030000 -0.0000040000  0.0000000000  0.0000000000  0.0000000000
  0.0001300000 -0.0000750000  0.0000150000 -0.0000040000 -0.0000060000 -0.0000100000 -0.0000100000  0.0000000000  0.0000000000  0.0000000000
  0.0003520000 -0.0002020000  0.0000400000 -0.0000100000 -0.0000170000 -0.0000260000 -0.0000280000  0.0000000000  0.0000000000  0.0000000000
  0.0008820000 -0.0005070000  0.0001000000 -0.0000240000 -0.0000420000 -0.0000670000 -0.0000700000  0.0000000000  0.0000000000  0.0000000000
  0.0021990000 -0.0012640000  0.0002490000 -0.0000600000 -0.0001030000 -0.0001600000 -0.0001810000  0.0000000000  0.0000000000  0.0000000000
  0.0055320000 -0.0031910000  0.0006330000 -0.0001530000 -0.0002720000 -0.0004350000 -0.0004320000  0.0000000000  0.0000000000  0.0000000000
  0.0140830000 -0.0081610000  0.0016220000 -0.0003920000 -0.0006550000 -0.0010050000 -0.0012120000  0.0000000000  0.0000000000  0.0000000000
  0.0350930000 -0.0206010000  0.0041490000 -0.0010030000 -0.0018210000 -0.0029490000 -0.0027520000  0.0000000000  0.0000000000  0.0000000000
  0.0814300000 -0.0489160000  0.0100150000 -0.0024210000 -0.0039590000 -0.0059720000 -0.0077240000  0.0000000000  0.0000000000  0.0000000000
  0.1645690000 -0.1043990000  0.0224020000 -0.0054190000 -0.0101080000 -0.0166370000 -0.0142930000  0.0000000000  0.0000000000  0.0000000000
  0.2626320000 -0.1854760000  0.0427710000 -0.0103610000 -0.0162010000 -0.0236840000 -0.0351350000  0.0000000000  0.0000000000  0.0000000000
  0.2731620000 -0.2443340000  0.0651430000 -0.0158320000 -0.0318930000 -0.0549230000 -0.0368140000  0.0000000000  0.0000000000  0.0000000000
  0.1412160000 -0.1538870000  0.0450750000 -0.0110030000 -0.0102390000 -0.0072170000 -0.0559630000  0.0000000000  0.0000000000  0.0000000000
  0.0704600000  0.1868870000 -0.0858650000  0.0211590000  0.0155450000  0.0034090000  0.1117600000  0.0000000000  0.0000000000  0.0000000000
  0.1249190000  0.5333670000 -0.3310660000  0.0853750000  0.2031530000  0.3895120000  0.2141660000  0.0000000000  0.0000000000  0.0000000000
  0.0881650000  0.3687560000 -0.3584680000  0.0964150000  0.0891500000  0.0925470000  0.6131590000  0.0000000000  0.0000000000  0.0000000000
  0.0113260000  0.0495060000  0.2210450000 -0.0709410000  0.0262840000 -0.0164440000 -1.4758760000  0.0000000000  0.0000000000  0.0000000000
 -0.0004190000 -0.0039720000  0.6853970000 -0.2398400000 -0.9642330000 -2.3078390000 -0.6976530000  0.0000000000  0.0000000000  0.0000000000
  0.0001250000  0.0001950000  0.3601480000 -0.2720170000  0.2264090000  2.7174500000  2.9768830000  0.0000000000  0.0000000000  0.0000000000
 -0.0000430000 -0.0003590000  0.0191690000  0.3127010000  2.0955710000  0.0384980000 -5.7468710000  0.0000000000  0.0000000000  0.0000000000
  0.0000400000  0.0002880000 -0.0058640000  0.6137670000 -1.1942840000 -2.5297130000  6.9531630000  0.0000000000  0.0000000000  0.0000000000
 -0.0000070000 -0.0000680000  0.0027540000  0.2489400000 -0.6425040000  1.9997590000 -3.0344170000  1.0000000000  0.0000000000  0.0000000000
  0.0000000000  0.0000000000  0.0000000000  0.0000000000  0.0000000000  0.0000000000  0.0000000000  0.0000000000  1.0000000000  0.0000000000
  0.0000000000  0.0000000000  0.0000000000  0.0000000000  0.0000000000  0.0000000000  0.0000000000  0.0000000000  0.0000000000  1.0000000000
* p-type functions
   20    9
      22640.97000000
       5357.54500000
       1740.37300000
        666.61630000
        283.63840000
        129.79760000
         62.67956000
         31.50441000
         16.23525000
          8.51832400
          4.51900500
          2.36659100
          1.21523500
          0.61434800
          0.30074500
          0.12583400
          0.05471900
          0.02348800
          4.07190000
          0.99940000
  0.0000390000 -0.0000130000 -0.0000030000  0.0000040000  0.0000080000 -0.0000090000  0.0000000000  0.0000000000  0.0000000000
  0.0001730000 -0.0000570000 -0.0000140000  0.0000170000  0.0000330000 -0.0000440000  0.0000000000  0.0000000000  0.0000000000
  0.0007840000 -0.0002570000 -0.0000630000  0.0000760000  0.0001590000 -0.0001670000  0.0000000000  0.0000000000  0.0000000000
  0.0031410000 -0.0010350000 -0.0002520000  0.0003070000  0.0005920000 -0.0008330000  0.0000000000  0.0000000000  0.0000000000
  0.0111150000 -0.0036790000 -0.0009000000  0.0010930000  0.0022770000 -0.0023500000  0.0000000000  0.0000000000  0.0000000000
  0.0338110000 -0.0113360000 -0.0027610000  0.0033720000  0.0064620000 -0.0091880000  0.0000000000  0.0000000000  0.0000000000
  0.0871300000 -0.0298480000 -0.0073230000  0.0088800000  0.0186080000 -0.0185450000  0.0000000000  0.0000000000  0.0000000000
  0.1810660000 -0.0640540000 -0.0156550000  0.0191230000  0.0360080000 -0.0537550000  0.0000000000  0.0000000000  0.0000000000
  0.2894700000 -0.1060770000 -0.0262660000  0.0317460000  0.0694180000 -0.0596530000  0.0000000000  0.0000000000  0.0000000000
  0.3269550000 -0.1280140000 -0.0315690000  0.0387620000  0.0707610000 -0.1569490000  0.0000000000  0.0000000000  0.0000000000
  0.2089190000 -0.0515380000 -0.0120800000  0.0146420000  0.0575890000  0.0129350000  0.0000000000  0.0000000000  0.0000000000
  0.0541810000  0.1753060000  0.0527840000 -0.0606900000 -0.1767470000  0.0894440000  0.0000000000  0.0000000000  0.0000000000
  0.0016720000  0.3929150000  0.1138130000 -0.1356270000 -0.3333020000  1.2768110000  0.0000000000  0.0000000000  0.0000000000
 -0.0015710000  0.3955600000  0.1457620000 -0.1751720000 -0.5698890000 -1.0591470000  0.0000000000  0.0000000000  0.0000000000
 -0.0010160000  0.1755030000  0.0132030000 -0.0771000000  1.1782580000 -1.3241720000  0.0000000000  0.0000000000  0.0000000000
 -0.0000590000  0.0190220000 -0.3522610000  0.5646910000  0.5507190000  2.3680990000  0.0000000000  0.0000000000  0.0000000000
 -0.0000200000  0.0000740000 -0.5500870000  0.5410650000 -0.9782210000 -1.1750710000  0.0000000000  0.0000000000  0.0000000000
  0.0000040000  0.0003050000 -0.2263860000  0.0356050000 -0.0769860000 -0.1929740000  1.0000000000  0.0000000000  0.0000000000
  0.0000000000  0.0000000000  0.0000000000  0.0000000000  0.0000000000  0.0000000000  0.0000000000  1.0000000000  0.0000000000
  0.0000000000  0.0000000000  0.0000000000  0.0000000000  0.0000000000  0.0000000000  0.0000000000  0.0000000000  1.0000000000
* d-type functions
   13    7
        148.02800000
         43.85280000
         16.66460000
          6.97893000
          3.12369000
          1.44687000
          0.66740700
          0.30163300
          0.13267400
          0.05673900
          0.02317500
          2.12820000
          0.96910000
  0.0004900000 -0.0005030000 -0.0006520000  0.0008350000  0.0000000000  0.0000000000  0.0000000000
  0.0041290000 -0.0042440000 -0.0054270000  0.0083830000  0.0000000000  0.0000000000  0.0000000000
  0.0186860000 -0.0192830000 -0.0252250000  0.0331020000  0.0000000000  0.0000000000  0.0000000000
  0.0578540000 -0.0603550000 -0.0772000000  0.1257230000  0.0000000000  0.0000000000  0.0000000000
  0.1370780000 -0.1437060000 -0.1898980000  0.2477730000  0.0000000000  0.0000000000  0.0000000000
  0.2310160000 -0.2301500000 -0.2877690000  0.4535390000  0.0000000000  0.0000000000  0.0000000000
  0.2956830000 -0.2631470000 -0.1763680000 -0.5351160000  0.0000000000  0.0000000000  0.0000000000
  0.3047830000 -0.0555990000  0.5992450000 -0.8932680000  0.0000000000  0.0000000000  0.0000000000
  0.2399250000  0.4054920000  0.5002360000  1.4396580000  0.0000000000  0.0000000000  0.0000000000
  0.1100890000  0.4846050000 -0.6733890000 -0.4547520000  0.0000000000  0.0000000000  0.0000000000
  0.0124510000  0.1119220000 -0.2904810000 -0.3983930000  1.0000000000  0.0000000000  0.0000000000
  0.0000000000  0.0000000000  0.0000000000  0.0000000000  0.0000000000  1.0000000000  0.0000000000
  0.0000000000  0.0000000000  0.0000000000  0.0000000000  0.0000000000  0.0000000000  1.0000000000
* f-type functions
    4    4
          2.75900000
          1.04900000
          0.39890000
          0.11060000
  1.0000000000  0.0000000000  0.0000000000  0.0000000000
  0.0000000000  1.0000000000  0.0000000000  0.0000000000
  0.0000000000  0.0000000000  1.0000000000  0.0000000000
  0.0000000000  0.0000000000  0.0000000000  1.0000000000
* g-type functions
    3    3
          2.48520000
          0.90670000
          0.25300000
  1.0000000000  0.0000000000  0.0000000000
  0.0000000000  1.0000000000  0.0000000000
  0.0000000000  0.0000000000  1.0000000000
* h-type functions
    2    2
          2.04050000
          0.49340000
  1.0000000000  0.0000000000
  0.0000000000  1.0000000000

/Ti.cc-pwCVQZ-DK.Balabanov.24s20p13d4f3g2h.10s9p7d4f3g2h.
N.B. Balabanov, K.A. Peterson. J. Chem. Phys. 123 (2005) 064107. doi:10.1063/1.1998907
TITANIUM (24s,20p,13d,4f,3g,2h) -> [10s,9p,7d,4f,3g,2h]
    22.0   5
* s-type functions
   24   10
    9317034.00000000
    1394971.00000000
     317453.10000000
      89921.00000000
      29338.16000000
      10592.66000000
       4132.05600000
       1714.23500000
        747.91510000
        340.19910000
        160.20600000
         77.58851000
         38.04489000
         17.35362000
          8.64206200
          4.30440400
          1.93771800
          0.93659400
          0.43262400
          0.10735200
          0.05203400
          0.02403800
          4.05190000
          1.05920000
  0.0000480000 -0.0000270000  0.0000060000 -0.0000010000 -0.0000020000 -0.0000040000 -0.0000040000  0.0000000000  0.0000000000  0.0000000000
  0.0001370000 -0.0000780000  0.0000160000 -0.0000040000 -0.0000070000 -0.0000110000 -0.0000120000  0.0000000000  0.0000000000  0.0000000000
  0.0003690000 -0.0002090000  0.0000430000 -0.0000100000 -0.0000190000 -0.0000290000 -0.0000330000  0.0000000000  0.0000000000  0.0000000000
  0.0009180000 -0.0005220000  0.0001060000 -0.0000250000 -0.0000470000 -0.0000740000 -0.0000800000  0.0000000000  0.0000000000  0.0000000000
  0.0022650000 -0.0012900000  0.0002630000 -0.0000620000 -0.0001140000 -0.0001770000 -0.0002080000  0.0000000000  0.0000000000  0.0000000000
  0.0056370000 -0.0032220000  0.0006590000 -0.0001560000 -0.0002980000 -0.0004720000 -0.0004770000  0.0000000000  0.0000000000  0.0000000000
  0.0142060000 -0.0081580000  0.0016720000 -0.0003970000 -0.0007100000 -0.0010940000 -0.0013800000  0.0000000000  0.0000000000  0.0000000000
  0.0351600000 -0.0204590000  0.0042500000 -0.0010080000 -0.0019660000 -0.0031320000 -0.0029340000  0.0000000000  0.0000000000  0.0000000000
  0.0813360000 -0.0484440000  0.0102280000 -0.0024260000 -0.0042390000 -0.0064710000 -0.0088360000  0.0000000000  0.0000000000  0.0000000000
  0.1643130000 -0.1033990000  0.0228630000 -0.0054310000 -0.0108910000 -0.0175340000 -0.0148350000  0.0000000000  0.0000000000  0.0000000000
  0.2627320000 -0.1841860000  0.0437150000 -0.0103860000 -0.0173170000 -0.0259950000 -0.0412370000  0.0000000000  0.0000000000  0.0000000000
  0.2747630000 -0.2439660000  0.0667600000 -0.0159460000 -0.0346520000 -0.0574830000 -0.0353130000  0.0000000000  0.0000000000  0.0000000000
  0.1433810000 -0.1550920000  0.0466230000 -0.0111360000 -0.0106910000 -0.0112000000 -0.0745600000  0.0000000000  0.0000000000  0.0000000000
  0.0699260000  0.1879170000 -0.0882470000  0.0212810000  0.0155810000  0.0114700000  0.1566220000  0.0000000000  0.0000000000  0.0000000000
  0.1217330000  0.5361260000 -0.3414970000  0.0868200000  0.2245120000  0.4086420000  0.1970970000  0.0000000000  0.0000000000  0.0000000000
  0.0854080000  0.3679910000 -0.3594440000  0.0946190000  0.0886640000  0.1257640000  0.7633560000  0.0000000000  0.0000000000  0.0000000000
  0.0109570000  0.0494090000  0.2370220000 -0.0736970000  0.0159690000 -0.1612930000 -2.1344110000  0.0000000000  0.0000000000  0.0000000000
 -0.0003620000 -0.0038250000  0.6874350000 -0.2412180000 -1.0519990000 -2.2350150000  0.4049510000  0.0000000000  0.0000000000  0.0000000000
  0.0000950000  0.0000870000  0.3500250000 -0.2563650000  0.3677290000  2.8573850000  2.1153220000  0.0000000000  0.0000000000  0.0000000000
 -0.0000310000 -0.0003080000  0.0179040000  0.3168670000  2.0024320000 -0.4826880000 -5.0821820000  0.0000000000  0.0000000000  0.0000000000
  0.0000390000  0.0002850000 -0.0054380000  0.6062010000 -1.2263140000 -1.8788870000  6.4423500000  0.0000000000  0.0000000000  0.0000000000
 -0.0000030000 -0.0000480000  0.0025370000  0.2487200000 -0.5667060000  1.7439050000 -2.9398560000  1.0000000000  0.0000000000  0.0000000000
  0.0000000000  0.0000000000  0.0000000000  0.0000000000  0.0000000000  0.0000000000  0.0000000000  0.0000000000  1.0000000000  0.0000000000
  0.0000000000  0.0000000000  0.0000000000  0.0000000000  0.0000000000  0.0000000000  0.0000000000  0.0000000000  0.0000000000  1.0000000000
* p-type functions
   20    9
      25537.33000000
       6042.24300000
       1962.65300000
        751.73380000
        319.88330000
        146.43000000
         70.74861000
         35.59088000
         18.36893000
          9.65865500
          5.13673000
          2.69887200
          1.38970300
          0.70316300
          0.34412300
          0.14137500
          0.06079100
          0.02583100
          4.82410000
          1.22110000
  0.0000410000 -0.0000140000  0.0000030000  0.0000040000  0.0000080000 -0.0000100000  0.0000000000  0.0000000000  0.0000000000
  0.0001750000 -0.0000590000  0.0000140000  0.0000180000  0.0000340000 -0.0000450000  0.0000000000  0.0000000000  0.0000000000
  0.0007800000 -0.0002620000  0.0000630000  0.0000790000  0.0001610000 -0.0001770000  0.0000000000  0.0000000000  0.0000000000
  0.0030920000 -0.0010410000  0.0002490000  0.0003140000  0.0005930000 -0.0008240000  0.0000000000  0.0000000000  0.0000000000
  0.0109090000 -0.0036910000  0.0008880000  0.0011130000  0.0022830000 -0.0024550000  0.0000000000  0.0000000000  0.0000000000
  0.0332110000 -0.0113840000  0.0027250000  0.0034320000  0.0064630000 -0.0090560000  0.0000000000  0.0000000000  0.0000000000
  0.0858830000 -0.0300860000  0.0072650000  0.0090940000  0.0187630000 -0.0196030000  0.0000000000  0.0000000000  0.0000000000
  0.1795240000 -0.0650050000  0.0156150000  0.0196660000  0.0364410000 -0.0531680000  0.0000000000  0.0000000000  0.0000000000
  0.2888880000 -0.1085090000  0.0264500000  0.0330480000  0.0710110000 -0.0659310000  0.0000000000  0.0000000000  0.0000000000
  0.3276960000 -0.1312330000  0.0317660000  0.0402020000  0.0710910000 -0.1487020000  0.0000000000  0.0000000000  0.0000000000
  0.2100700000 -0.0513800000  0.0120800000  0.0150120000  0.0583500000 -0.0224680000  0.0000000000  0.0000000000  0.0000000000
  0.0549250000  0.1797250000 -0.0532040000 -0.0640970000 -0.1859340000  0.1803870000  0.0000000000  0.0000000000  0.0000000000
  0.0018240000  0.3962200000 -0.1129400000 -0.1398750000 -0.3293680000  1.1704710000  0.0000000000  0.0000000000  0.0000000000
 -0.0015830000  0.3915750000 -0.1429220000 -0.1795270000 -0.5446980000 -1.0091870000  0.0000000000  0.0000000000  0.0000000000
 -0.0010010000  0.1730820000 -0.0096270000 -0.0499880000  1.1603920000 -1.2804130000  0.0000000000  0.0000000000  0.0000000000
 -0.0000600000  0.0188130000  0.3540680000  0.5710180000  0.5310260000  2.2836230000  0.0000000000  0.0000000000  0.0000000000
 -0.0000160000 -0.0002960000  0.5482170000  0.5224460000 -0.9673130000 -1.1335330000  0.0000000000  0.0000000000  0.0000000000
  0.0000030000  0.0003680000  0.2256830000  0.0348550000 -0.0814950000 -0.2007620000  1.0000000000  0.0000000000  0.0000000000
  0.0000000000  0.0000000000  0.0000000000  0.0000000000  0.0000000000  0.0000000000  0.0000000000  1.0000000000  0.0000000000
  0.0000000000  0.0000000000  0.0000000000  0.0000000000  0.0000000000  0.0000000000  0.0000000000  0.0000000000  1.0000000000
* d-type functions
   13    7
        199.97200000
         59.18690000
         22.60130000
          9.57391000
          4.31771000
          2.02373000
          0.94716900
          0.43387700
          0.19212600
          0.08140400
          0.03223300
          2.78290000
          1.36570000
  0.0003870000 -0.0003950000 -0.0006270000 -0.0007040000  0.0000000000  0.0000000000  0.0000000000
  0.0033620000 -0.0034330000 -0.0054590000 -0.0070290000  0.0000000000  0.0000000000  0.0000000000
  0.0161370000 -0.0165460000 -0.0266700000 -0.0306810000  0.0000000000  0.0000000000  0.0000000000
  0.0519050000 -0.0538430000 -0.0882250000 -0.1179840000  0.0000000000  0.0000000000  0.0000000000
  0.1286240000 -0.1356220000 -0.2246980000 -0.2736880000  0.0000000000  0.0000000000  0.0000000000
  0.2291190000 -0.2281990000 -0.3285440000 -0.3822080000  0.0000000000  0.0000000000  0.0000000000
  0.3019170000 -0.2563190000 -0.1158350000  0.5416700000  0.0000000000  0.0000000000  0.0000000000
  0.3096490000 -0.0539210000  0.6164880000  0.7650710000  0.0000000000  0.0000000000  0.0000000000
  0.2346190000  0.3874070000  0.4178460000 -1.2834360000  0.0000000000  0.0000000000  0.0000000000
  0.1048760000  0.4995520000 -0.6084680000  0.2757400000  0.0000000000  0.0000000000  0.0000000000
  0.0125200000  0.1318790000 -0.2850030000  0.5443000000  1.0000000000  0.0000000000  0.0000000000
  0.0000000000  0.0000000000  0.0000000000  0.0000000000  0.0000000000  1.0000000000  0.0000000000
  0.0000000000  0.0000000000  0.0000000000  0.0000000000  0.0000000000  0.0000000000  1.0000000000
* f-type functions
    4    4
          3.71920000
          1.48380000
          0.59200000
          0.17960000
  1.0000000000  0.0000000000  0.0000000000  0.0000000000
  0.0000000000  1.0000000000  0.0000000000  0.0000000000
  0.0000000000  0.0000000000  1.0000000000  0.0000000000
  0.0000000000  0.0000000000  0.0000000000  1.0000000000
* g-type functions
    3    3
          3.20990000
          1.26520000
          0.39470000
  1.0000000000  0.0000000000  0.0000000000
  0.0000000000  1.0000000000  0.0000000000
  0.0000000000  0.0000000000  1.0000000000
* h-type functions
    2    2
          2.76760000
          0.85240000
  1.0000000000  0.0000000000
  0.0000000000  1.0000000000

/V.cc-pwCVQZ-DK.Balabanov.24s20p13d4f3g2h.10s9p7d4f3g2h.
N.B. Balabanov, K.A. Peterson. J. Chem. Phys. 123 (2005) 064107. doi:10.1063/1.1998907
VANADIUM (24s,20p,13d,4f,3g,2h) -> [10s,9p,7d,4f,3g,2h]
    23.0   5
* s-type functions
   24   10
   10251780.00000000
    1534920.00000000
     349300.90000000
      98942.05000000
      32281.36000000
      11655.27000000
       4546.54800000
       1886.18500000
        822.94170000
        374.34390000
        176.30690000
         85.40661000
         41.90435000
         19.15525000
          9.57161700
          4.78008600
          2.16186000
          1.04271100
          0.48028200
          0.11763800
          0.05617400
          0.02566100
          4.46320000
          1.31070000
  0.0000510000 -0.0000280000  0.0000060000 -0.0000010000 -0.0000030000 -0.0000040000 -0.0000050000  0.0000000000  0.0000000000  0.0000000000
  0.0001450000 -0.0000800000  0.0000170000 -0.0000040000 -0.0000080000 -0.0000120000 -0.0000140000  0.0000000000  0.0000000000  0.0000000000
  0.0003880000 -0.0002150000  0.0000450000 -0.0000110000 -0.0000200000 -0.0000320000 -0.0000370000  0.0000000000  0.0000000000  0.0000000000
  0.0009590000 -0.0005330000  0.0001130000 -0.0000260000 -0.0000510000 -0.0000810000 -0.0000890000  0.0000000000  0.0000000000  0.0000000000
  0.0023460000 -0.0013050000  0.0002760000 -0.0000640000 -0.0001220000 -0.0001910000 -0.0002320000  0.0000000000  0.0000000000  0.0000000000
  0.0057780000 -0.0032250000  0.0006850000 -0.0001590000 -0.0003180000 -0.0005020000 -0.0005200000  0.0000000000  0.0000000000  0.0000000000
  0.0144180000 -0.0080890000  0.0017220000 -0.0004010000 -0.0007480000 -0.0011630000 -0.0015180000  0.0000000000  0.0000000000  0.0000000000
  0.0354410000 -0.0201520000  0.0043460000 -0.0010120000 -0.0020610000 -0.0032710000 -0.0031210000  0.0000000000  0.0000000000  0.0000000000
  0.0817150000 -0.0475820000  0.0104260000 -0.0024260000 -0.0044150000 -0.0068350000 -0.0096880000  0.0000000000  0.0000000000  0.0000000000
  0.1649650000 -0.1015860000  0.0232820000 -0.0054310000 -0.0113810000 -0.0181850000 -0.0155290000  0.0000000000  0.0000000000  0.0000000000
  0.2641750000 -0.1814790000  0.0445480000 -0.0103840000 -0.0180080000 -0.0276530000 -0.0457170000  0.0000000000  0.0000000000  0.0000000000
  0.2776330000 -0.2418400000  0.0681470000 -0.0159960000 -0.0363880000 -0.0593360000 -0.0354600000  0.0000000000  0.0000000000  0.0000000000
  0.1460600000 -0.1546910000  0.0477830000 -0.0111760000 -0.0109160000 -0.0139910000 -0.0871400000  0.0000000000  0.0000000000  0.0000000000
  0.0683250000  0.1906220000 -0.0909640000  0.0214850000  0.0158660000  0.0177810000  0.1876050000  0.0000000000  0.0000000000  0.0000000000
  0.1153650000  0.5397270000 -0.3509110000  0.0878790000  0.2385610000  0.4239440000  0.2022650000  0.0000000000  0.0000000000  0.0000000000
  0.0802700000  0.3667050000 -0.3582080000  0.0922920000  0.0861270000  0.1443250000  0.8408220000  0.0000000000  0.0000000000  0.0000000000
  0.0102060000  0.0489360000  0.2523820000 -0.0762840000  0.0045110000 -0.2717610000 -2.5807070000  0.0000000000  0.0000000000  0.0000000000
 -0.0003070000 -0.0037570000  0.6881350000 -0.2409190000 -1.0936470000 -2.1448410000  1.1903460000  0.0000000000  0.0000000000  0.0000000000
  0.0000610000 -0.0000410000  0.3404340000 -0.2425420000  0.4530570000  2.9061280000  1.4732050000  0.0000000000  0.0000000000  0.0000000000
 -0.0000200000 -0.0002620000  0.0167320000  0.3201900000  1.9309090000 -0.7881850000 -4.5441610000  0.0000000000  0.0000000000  0.0000000000
  0.0000370000  0.0002880000 -0.0049670000  0.5991660000 -1.2327630000 -1.4659060000  5.9967610000  0.0000000000  0.0000000000  0.0000000000
  0.0000010000 -0.0000290000  0.0023950000  0.2488470000 -0.5215690000  1.5677880000 -2.8328390000  1.0000000000  0.0000000000  0.0000000000
  0.0000000000  0.0000000000  0.0000000000  0.0000000000  0.0000000000  0.0000000000  0.0000000000  0.0000000000  1.0000000000  0.0000000000
  0.0000000000  0.0000000000  0.0000000000  0.0000000000  0.0000000000  0.0000000000  0.0000000000  0.0000000000  0.0000000000  1.0000000000
* p-type functions
   20    9
      28563.32000000
       6757.19100000
       2194.65200000
        840.52570000
        357.66660000
        163.75340000
         79.14466000
         39.83858000
         20.58536000
         10.84307000
          5.77796900
          3.04317000
          1.57023900
          0.79497500
          0.38898000
          0.15733500
          0.06658300
          0.02784400
          5.65010000
          1.43500000
  0.0000430000 -0.0000150000  0.0000040000  0.0000040000  0.0000090000 -0.0000110000  0.0000000000  0.0000000000  0.0000000000
  0.0001780000 -0.0000610000  0.0000150000  0.0000180000  0.0000360000 -0.0000500000  0.0000000000  0.0000000000  0.0000000000
  0.0007810000 -0.0002670000  0.0000650000  0.0000810000  0.0001680000 -0.0001900000  0.0000000000  0.0000000000  0.0000000000
  0.0030620000 -0.0010490000  0.0002520000  0.0003180000  0.0006150000 -0.0008750000  0.0000000000  0.0000000000  0.0000000000
  0.0107680000 -0.0037070000  0.0008980000  0.0011240000  0.0023560000 -0.0026070000  0.0000000000  0.0000000000  0.0000000000
  0.0327920000 -0.0114380000  0.0027560000  0.0034680000  0.0066770000 -0.0096130000  0.0000000000  0.0000000000  0.0000000000
  0.0850360000 -0.0303200000  0.0073760000  0.0092140000  0.0194410000 -0.0209460000  0.0000000000  0.0000000000  0.0000000000
  0.1785820000 -0.0658710000  0.0159330000  0.0200460000  0.0380200000 -0.0570950000  0.0000000000  0.0000000000  0.0000000000
  0.2887830000 -0.1106360000  0.0271950000  0.0338840000  0.0743940000 -0.0712500000  0.0000000000  0.0000000000  0.0000000000
  0.3282520000 -0.1337960000  0.0325940000  0.0412880000  0.0746660000 -0.1585200000  0.0000000000  0.0000000000  0.0000000000
  0.2104570000 -0.0504700000  0.0118210000  0.0147000000  0.0596980000 -0.0187930000  0.0000000000  0.0000000000  0.0000000000
  0.0551900000  0.1841380000 -0.0558370000 -0.0662180000 -0.2028460000  0.2409470000  0.0000000000  0.0000000000  0.0000000000
  0.0018830000  0.3986760000 -0.1156350000 -0.1436870000 -0.3467910000  1.1423850000  0.0000000000  0.0000000000  0.0000000000
 -0.0016270000  0.3877830000 -0.1386370000 -0.1780180000 -0.4971730000 -1.1366200000  0.0000000000  0.0000000000  0.0000000000
 -0.0010070000  0.1710070000  0.0022130000 -0.0335830000  1.1593020000 -1.0774880000  0.0000000000  0.0000000000  0.0000000000
 -0.0000620000  0.0185650000  0.3520420000  0.5764400000  0.4791120000  2.1602070000  0.0000000000  0.0000000000  0.0000000000
 -0.0000130000 -0.0005590000  0.5411560000  0.5110710000 -0.9455920000 -1.1313370000  0.0000000000  0.0000000000  0.0000000000
  0.0000020000  0.0004130000  0.2318380000  0.0326320000 -0.0701110000 -0.1706590000  1.0000000000  0.0000000000  0.0000000000
  0.0000000000  0.0000000000  0.0000000000  0.0000000000  0.0000000000  0.0000000000  0.0000000000  1.0000000000  0.0000000000
  0.0000000000  0.0000000000  0.0000000000  0.0000000000  0.0000000000  0.0000000000  0.0000000000  0.0000000000  1.0000000000
* d-type functions
   13    7
        244.34700000
         72.29260000
         27.64930000
         11.77780000
          5.33731000
          2.51760000
          1.18881000
          0.54996700
          0.24573800
          0.10450400
          0.04114500
          3.44370000
          1.76380000
  0.0003510000 -0.0003720000 -0.0005750000 -0.0007310000  0.0000000000  0.0000000000  0.0000000000
  0.0030850000 -0.0032770000 -0.0050770000 -0.0070950000  0.0000000000  0.0000000000  0.0000000000
  0.0152580000 -0.0162790000 -0.0255170000 -0.0331860000  0.0000000000  0.0000000000  0.0000000000
  0.0502450000 -0.0543160000 -0.0868340000 -0.1269420000  0.0000000000  0.0000000000  0.0000000000
  0.1265230000 -0.1399110000 -0.2285650000 -0.3250860000  0.0000000000  0.0000000000  0.0000000000
  0.2292800000 -0.2390000000 -0.3376560000 -0.3625000000  0.0000000000  0.0000000000  0.0000000000
  0.3034060000 -0.2538070000 -0.0917660000  0.6689130000  0.0000000000  0.0000000000  0.0000000000
  0.3088670000 -0.0303220000  0.6199220000  0.6037430000  0.0000000000  0.0000000000  0.0000000000
  0.2310890000  0.3839470000  0.3937470000 -1.2164810000  0.0000000000  0.0000000000  0.0000000000
  0.1037090000  0.4879820000 -0.6029800000  0.2817010000  0.0000000000  0.0000000000  0.0000000000
  0.0135650000  0.1379380000 -0.2933000000  0.5146800000  1.0000000000  0.0000000000  0.0000000000
  0.0000000000  0.0000000000  0.0000000000  0.0000000000  0.0000000000  1.0000000000  0.0000000000
  0.0000000000  0.0000000000  0.0000000000  0.0000000000  0.0000000000  0.0000000000  1.0000000000
* f-type functions
    4    4
          4.69990000
          1.92210000
          0.78610000
          0.25160000
  1.0000000000  0.0000000000  0.0000000000  0.0000000000
  0.0000000000  1.0000000000  0.0000000000  0.0000000000
  0.0000000000  0.0000000000  1.0000000000  0.0000000000
  0.0000000000  0.0000000000  0.0000000000  1.0000000000
* g-type functions
    3    3
          3.97180000
          1.63550000
          0.55640000
  1.0000000000  0.0000000000  0.0000000000
  0.0000000000  1.0000000000  0.0000000000
  0.0000000000  0.0000000000  1.0000000000
* h-type functions
    2    2
          3.64330000
          1.28750000
  1.0000000000  0.0000000000
  0.0000000000  1.0000000000

/Cr.cc-pwCVQZ-DK.Balabanov.24s20p13d4f3g2h.10s9p7d4f3g2h.
N.B. Balabanov, K.A. Peterson. J. Chem. Phys. 123 (2005) 064107. doi:10.1063/1.1998907
CHROMIUM (24s,20p,13d,4f,3g,2h) -> [10s,9p,7d,4f,3g,2h]
    24.0   5
* s-type functions
   24   10
   11016640.00000000
    1649423.00000000
     375358.90000000
     106323.60000000
      34689.76000000
      12524.83000000
       4885.75200000
       2026.91800000
        884.36450000
        402.31700000
        189.52710000
         91.86095000
         45.12476000
         20.62512000
         10.31973000
          5.15772300
          2.31262800
          1.10307900
          0.49804200
          0.11824700
          0.05735600
          0.02576000
          4.79910000
          1.42870000
  0.0000540000 -0.0000300000  0.0000060000 -0.0000010000 -0.0000030000 -0.0000050000 -0.0000050000  0.0000000000  0.0000000000  0.0000000000
  0.0001540000 -0.0000860000  0.0000180000 -0.0000040000 -0.0000080000 -0.0000130000 -0.0000150000  0.0000000000  0.0000000000  0.0000000000
  0.0004120000 -0.0002280000  0.0000490000 -0.0000110000 -0.0000220000 -0.0000350000 -0.0000420000  0.0000000000  0.0000000000  0.0000000000
  0.0010120000 -0.0005620000  0.0001210000 -0.0000280000 -0.0000550000 -0.0000870000 -0.0000990000  0.0000000000  0.0000000000  0.0000000000
  0.0024600000 -0.0013670000  0.0002940000 -0.0000670000 -0.0001310000 -0.0002080000 -0.0002590000  0.0000000000  0.0000000000  0.0000000000
  0.0060080000 -0.0033520000  0.0007250000 -0.0001660000 -0.0003380000 -0.0005320000 -0.0005660000  0.0000000000  0.0000000000  0.0000000000
  0.0148700000 -0.0083390000  0.0018090000 -0.0004120000 -0.0007860000 -0.0012540000 -0.0016830000  0.0000000000  0.0000000000  0.0000000000
  0.0363090000 -0.0206480000  0.0045400000 -0.0010390000 -0.0021660000 -0.0033990000 -0.0033080000  0.0000000000  0.0000000000  0.0000000000
  0.0833080000 -0.0485430000  0.0108370000 -0.0024630000 -0.0045870000 -0.0073610000 -0.0107390000  0.0000000000  0.0000000000  0.0000000000
  0.1673620000 -0.1032880000  0.0241590000 -0.0055480000 -0.0119040000 -0.0186100000 -0.0160340000  0.0000000000  0.0000000000  0.0000000000
  0.2661030000 -0.1836520000  0.0459620000 -0.0104380000 -0.0184920000 -0.0301280000 -0.0511580000  0.0000000000  0.0000000000  0.0000000000
  0.2761380000 -0.2426780000  0.0698970000 -0.0162390000 -0.0378720000 -0.0587280000 -0.0331430000  0.0000000000  0.0000000000  0.0000000000
  0.1429680000 -0.1497000000  0.0466910000 -0.0103850000 -0.0093630000 -0.0190270000 -0.1014980000  0.0000000000  0.0000000000  0.0000000000
  0.0695690000  0.2061910000 -0.0999290000  0.0224250000  0.0177020000  0.0388480000  0.2332710000  0.0000000000  0.0000000000  0.0000000000
  0.1153580000  0.5462950000 -0.3685700000  0.0924750000  0.2547990000  0.4187920000  0.2014630000  0.0000000000  0.0000000000  0.0000000000
  0.0760500000  0.3519330000 -0.3424530000  0.0833650000  0.0707240000  0.1853590000  0.8803140000  0.0000000000  0.0000000000  0.0000000000
  0.0089700000  0.0434510000  0.2985130000 -0.0821470000 -0.0257070000 -0.5215690000 -3.1030870000  0.0000000000  0.0000000000  0.0000000000
 -0.0002630000 -0.0034870000  0.6976530000 -0.2590250000 -1.1363580000 -1.8075870000  2.3290390000  0.0000000000  0.0000000000  0.0000000000
  0.0000710000  0.0000520000  0.2956920000 -0.2041760000  0.6281400000  2.8725050000  0.4451650000  0.0000000000  0.0000000000  0.0000000000
 -0.0000110000 -0.0001960000  0.0095900000  0.3777770000  1.8833370000 -1.3448820000 -3.8882070000  0.0000000000  0.0000000000  0.0000000000
  0.0000400000  0.0002860000 -0.0010750000  0.5588970000 -1.3929490000 -0.7200920000  5.5615460000  0.0000000000  0.0000000000  0.0000000000
  0.0000040000 -0.0000130000  0.0012770000  0.2276850000 -0.4127350000  1.2688570000 -2.7234280000  1.0000000000  0.0000000000  0.0000000000
  0.0000000000  0.0000000000  0.0000000000  0.0000000000  0.0000000000  0.0000000000  0.0000000000  0.0000000000  1.0000000000  0.0000000000
  0.0000000000  0.0000000000  0.0000000000  0.0000000000  0.0000000000  0.0000000000  0.0000000000  0.0000000000  0.0000000000  1.0000000000
* p-type functions
   20    9
      31539.89000000
       7460.23400000
       2422.62200000
        927.75470000
        394.80410000
        180.80270000
         87.42393000
         44.03427000
         22.77704000
         12.01547000
          6.41175100
          3.38113600
          1.74705400
          0.88500400
          0.43302800
          0.17396200
          0.07282300
          0.02995200
          6.45520000
          1.65310000
  0.0000460000 -0.0000160000  0.0000040000  0.0000050000  0.0000100000 -0.0000130000  0.0000000000  0.0000000000  0.0000000000
  0.0001840000 -0.0000640000  0.0000150000  0.0000190000  0.0000390000 -0.0000540000  0.0000000000  0.0000000000  0.0000000000
  0.0007930000 -0.0002750000  0.0000650000  0.0000830000  0.0001790000 -0.0002070000  0.0000000000  0.0000000000  0.0000000000
  0.0030740000 -0.0010700000  0.0002520000  0.0003250000  0.0006500000 -0.0009320000  0.0000000000  0.0000000000  0.0000000000
  0.0107650000 -0.0037650000  0.0008930000  0.0011440000  0.0024720000 -0.0027990000  0.0000000000  0.0000000000  0.0000000000
  0.0327480000 -0.0116070000  0.0027370000  0.0035350000  0.0070230000 -0.0101970000  0.0000000000  0.0000000000  0.0000000000
  0.0849950000 -0.0308030000  0.0073310000  0.0093750000  0.0204050000 -0.0225810000  0.0000000000  0.0000000000  0.0000000000
  0.1788510000 -0.0671020000  0.0158860000  0.0205310000  0.0402100000 -0.0608530000  0.0000000000  0.0000000000  0.0000000000
  0.2896740000 -0.1130240000  0.0271800000  0.0346480000  0.0784580000 -0.0779640000  0.0000000000  0.0000000000  0.0000000000
  0.3283500000 -0.1359580000  0.0324270000  0.0423890000  0.0794720000 -0.1676820000  0.0000000000  0.0000000000  0.0000000000
  0.2090050000 -0.0478150000  0.0108710000  0.0133730000  0.0588510000 -0.0107790000  0.0000000000  0.0000000000  0.0000000000
  0.0543940000  0.1907310000 -0.0565060000 -0.0684010000 -0.2240270000  0.3109570000  0.0000000000  0.0000000000  0.0000000000
  0.0020050000  0.4011900000 -0.1144660000 -0.1487620000 -0.3702630000  1.0976240000  0.0000000000  0.0000000000  0.0000000000
 -0.0014380000  0.3827710000 -0.1329640000 -0.1732490000 -0.4376700000 -1.2795560000  0.0000000000  0.0000000000  0.0000000000
 -0.0009110000  0.1674310000  0.0047140000 -0.0207630000  1.1645370000 -0.8569200000  0.0000000000  0.0000000000  0.0000000000
 -0.0000520000  0.0180400000  0.3440550000  0.5782720000  0.4154860000  2.0411650000  0.0000000000  0.0000000000  0.0000000000
 -0.0000120000 -0.0006540000  0.5412790000  0.5031920000 -0.9143280000 -1.1202710000  0.0000000000  0.0000000000  0.0000000000
  0.0000020000  0.0004160000  0.2403980000  0.0323740000 -0.0627770000 -0.1535980000  1.0000000000  0.0000000000  0.0000000000
  0.0000000000  0.0000000000  0.0000000000  0.0000000000  0.0000000000  0.0000000000  0.0000000000  1.0000000000  0.0000000000
  0.0000000000  0.0000000000  0.0000000000  0.0000000000  0.0000000000  0.0000000000  0.0000000000  0.0000000000  1.0000000000
* d-type functions
   13    7
        281.31200000
         83.18850000
         31.83960000
         13.60260000
          6.18298000
          2.92270000
          1.38216000
          0.63946000
          0.28489800
          0.12004500
          0.04622900
          4.08480000
          2.14050000
  0.0003470000 -0.0003940000 -0.0005630000  0.0007970000  0.0000000000  0.0000000000  0.0000000000
  0.0030700000 -0.0034940000 -0.0050080000  0.0076390000  0.0000000000  0.0000000000  0.0000000000
  0.0153950000 -0.0175900000 -0.0254920000  0.0369700000  0.0000000000  0.0000000000  0.0000000000
  0.0513190000 -0.0596210000 -0.0881820000  0.1424390000  0.0000000000  0.0000000000  0.0000000000
  0.1296680000 -0.1545140000 -0.2353990000  0.3758710000  0.0000000000  0.0000000000  0.0000000000
  0.2347810000 -0.2603230000 -0.3396410000  0.3231850000  0.0000000000  0.0000000000  0.0000000000
  0.3080430000 -0.2500610000 -0.0376150000 -0.8334330000  0.0000000000  0.0000000000  0.0000000000
  0.3080560000  0.0227810000  0.6602460000 -0.3730540000  0.0000000000  0.0000000000  0.0000000000
  0.2239250000  0.4192340000  0.2965440000  1.2135530000  0.0000000000  0.0000000000  0.0000000000
  0.0946790000  0.4520610000 -0.6557610000 -0.4829450000  0.0000000000  0.0000000000  0.0000000000
  0.0106850000  0.1033980000 -0.2399970000 -0.3748760000  1.0000000000  0.0000000000  0.0000000000
  0.0000000000  0.0000000000  0.0000000000  0.0000000000  0.0000000000  1.0000000000  0.0000000000
  0.0000000000  0.0000000000  0.0000000000  0.0000000000  0.0000000000  0.0000000000  1.0000000000
* f-type functions
    4    4
          5.66330000
          2.33650000
          0.96390000
          0.31420000
  1.0000000000  0.0000000000  0.0000000000  0.0000000000
  0.0000000000  1.0000000000  0.0000000000  0.0000000000
  0.0000000000  0.0000000000  1.0000000000  0.0000000000
  0.0000000000  0.0000000000  0.0000000000  1.0000000000
* g-type functions
    3    3
          4.66900000
          1.95380000
          0.68480000
  1.0000000000  0.0000000000  0.0000000000
  0.0000000000  1.0000000000  0.0000000000
  0.0000000000  0.0000000000  1.0000000000
* h-type functions
    2    2
          4.41330000
          1.64720000
  1.0000000000  0.0000000000
  0.0000000000  1.0000000000

/Mn.cc-pwCVQZ-DK.Balabanov.24s20p13d4f3g2h.10s9p7d4f3g2h.
N.B. Balabanov, K.A. Peterson. J. Chem. Phys. 123 (2005) 064107. doi:10.1063/1.1998907
MANGANESE (24s,20p,13d,4f,3g,2h) -> [10s,9p,7d,4f,3g,2h]
    25.0   5
* s-type functions
   24   10
   12210500.00000000
    1828157.00000000
     416030.30000000
     117843.60000000
      38448.14000000
      13881.71000000
       5415.00200000
       2246.46000000
        980.14630000
        445.89520000
        210.05580000
        101.80460000
         50.01126000
         22.93939000
         11.52264000
          5.77633800
          2.62595900
          1.26032200
          0.57713000
          0.13658200
          0.06353500
          0.02852100
          5.33890000
          1.60130000
  0.0000580000 -0.0000280000  0.0000070000 -0.0000020000 -0.0000030000 -0.0000050000 -0.0000060000  0.0000000000  0.0000000000  0.0000000000
  0.0001650000 -0.0000790000  0.0000190000 -0.0000040000 -0.0000090000 -0.0000140000 -0.0000160000  0.0000000000  0.0000000000  0.0000000000
  0.0004380000 -0.0002090000  0.0000510000 -0.0000110000 -0.0000230000 -0.0000370000 -0.0000440000  0.0000000000  0.0000000000  0.0000000000
  0.0010700000 -0.0005120000  0.0001250000 -0.0000280000 -0.0000570000 -0.0000910000 -0.0001040000  0.0000000000  0.0000000000  0.0000000000
  0.0025760000 -0.0012360000  0.0003020000 -0.0000670000 -0.0001340000 -0.0002130000 -0.0002660000  0.0000000000  0.0000000000  0.0000000000
  0.0062270000 -0.0030000000  0.0007350000 -0.0001640000 -0.0003410000 -0.0005440000 -0.0005870000  0.0000000000  0.0000000000  0.0000000000
  0.0152550000 -0.0073920000  0.0018160000 -0.0004050000 -0.0007900000 -0.0012540000 -0.0016770000  0.0000000000  0.0000000000  0.0000000000
  0.0369930000 -0.0181990000  0.0045200000 -0.0010090000 -0.0021450000 -0.0034240000 -0.0034070000  0.0000000000  0.0000000000  0.0000000000
  0.0847020000 -0.0427750000  0.0107630000 -0.0023990000 -0.0045600000 -0.0072400000 -0.0105060000  0.0000000000  0.0000000000  0.0000000000
  0.1707500000 -0.0916740000  0.0239650000 -0.0053570000 -0.0117340000 -0.0187740000 -0.0167510000  0.0000000000  0.0000000000  0.0000000000
  0.2743970000 -0.1657000000  0.0458380000 -0.0102290000 -0.0185180000 -0.0294560000 -0.0495550000  0.0000000000  0.0000000000  0.0000000000
  0.2920430000 -0.2259060000  0.0701710000 -0.0157930000 -0.0375870000 -0.0606780000 -0.0381420000  0.0000000000  0.0000000000  0.0000000000
  0.1562220000 -0.1460020000  0.0489920000 -0.0109470000 -0.0109190000 -0.0172460000 -0.0951520000  0.0000000000  0.0000000000  0.0000000000
  0.0570620000  0.2013410000 -0.0969430000  0.0218960000  0.0172930000  0.0278370000  0.2112910000  0.0000000000  0.0000000000  0.0000000000
  0.0808350000  0.5511090000 -0.3667830000  0.0881540000  0.2491810000  0.4339450000  0.2315620000  0.0000000000  0.0000000000  0.0000000000
  0.0554240000  0.3649400000 -0.3506890000  0.0858360000  0.0803670000  0.1645920000  0.8752810000  0.0000000000  0.0000000000  0.0000000000
  0.0066290000  0.0468620000  0.2826890000 -0.0805790000 -0.0187700000 -0.4097160000 -2.9729550000  0.0000000000  0.0000000000  0.0000000000
 -0.0002790000 -0.0049100000  0.6877440000 -0.2334220000 -1.0968980000 -1.9645600000  1.9405330000  0.0000000000  0.0000000000  0.0000000000
 -0.0000720000 -0.0008110000  0.3208270000 -0.2180350000  0.5280050000  2.8395490000  0.8065440000  0.0000000000  0.0000000000  0.0000000000
 -0.0000030000 -0.0002310000  0.0142970000  0.3213000000  1.8057720000 -0.9662380000 -3.8652740000  0.0000000000  0.0000000000  0.0000000000
  0.0000180000  0.0002610000 -0.0039610000  0.5871860000 -1.1683710000 -1.1393420000  5.3654950000  0.0000000000  0.0000000000  0.0000000000
  0.0000040000 -0.0000190000  0.0021530000  0.2516040000 -0.5016020000  1.4039150000 -2.6454650000  1.0000000000  0.0000000000  0.0000000000
  0.0000000000  0.0000000000  0.0000000000  0.0000000000  0.0000000000  0.0000000000  0.0000000000  0.0000000000  1.0000000000  0.0000000000
  0.0000000000  0.0000000000  0.0000000000  0.0000000000  0.0000000000  0.0000000000  0.0000000000  0.0000000000  0.0000000000  1.0000000000
* p-type functions
   20    9
      35005.12000000
       8279.46200000
       2688.46500000
       1029.49000000
        438.07080000
        200.61530000
         97.00769000
         48.87052000
         25.29281000
         13.35382000
          7.13178600
          3.76436500
          1.94626500
          0.98545500
          0.48186500
          0.18822219
          0.07753957
          0.03154945
          7.34230000
          1.93400000
  0.0000480000 -0.0000170000 -0.0000040000  0.0000050000  0.0000110000 -0.0000150000  0.0000000000  0.0000000000  0.0000000000
  0.0001870000 -0.0000650000 -0.0000150000  0.0000200000  0.0000420000 -0.0000600000  0.0000000000  0.0000000000  0.0000000000
  0.0007950000 -0.0002760000 -0.0000640000  0.0000870000  0.0001890000 -0.0002330000  0.0000000000  0.0000000000  0.0000000000
  0.0030450000 -0.0010630000 -0.0002440000  0.0003310000  0.0006700000 -0.0009920000  0.0000000000  0.0000000000  0.0000000000
  0.0106220000 -0.0037280000 -0.0008620000  0.0011680000  0.0025720000 -0.0031070000  0.0000000000  0.0000000000  0.0000000000
  0.0323120000 -0.0114960000 -0.0026400000  0.0035830000  0.0072120000 -0.0108160000  0.0000000000  0.0000000000  0.0000000000
  0.0841060000 -0.0306030000 -0.0071040000  0.0096140000  0.0213320000 -0.0253500000  0.0000000000  0.0000000000  0.0000000000
  0.1778670000 -0.0670670000 -0.0154490000  0.0209630000  0.0415820000 -0.0647510000  0.0000000000  0.0000000000  0.0000000000
  0.2896740000 -0.1137030000 -0.0266700000  0.0360950000  0.0832960000 -0.0906570000  0.0000000000  0.0000000000  0.0000000000
  0.3295160000 -0.1370730000 -0.0317120000  0.0432600000  0.0812140000 -0.1700890000  0.0000000000  0.0000000000  0.0000000000
  0.2101060000 -0.0467790000 -0.0106380000  0.0145930000  0.0663900000 -0.0386240000  0.0000000000  0.0000000000  0.0000000000
  0.0543090000  0.1938100000  0.0556750000 -0.0739170000 -0.2544520000  0.4446210000  0.0000000000  0.0000000000  0.0000000000
  0.0009210000  0.4032800000  0.1103720000 -0.1508130000 -0.3788380000  1.0592000000  0.0000000000  0.0000000000  0.0000000000
 -0.0025450000  0.3802000000  0.1279880000 -0.1784340000 -0.3911210000 -1.5463780000  0.0000000000  0.0000000000  0.0000000000
 -0.0013860000  0.1659910000 -0.0059250000  0.0078630000  1.1724280000 -0.4568530000  0.0000000000  0.0000000000  0.0000000000
 -0.0001010000  0.0176060000 -0.3403060000  0.5895700000  0.3433290000  1.7988000000  0.0000000000  0.0000000000  0.0000000000
 -0.0000060000 -0.0009790000 -0.5399780000  0.4812390000 -0.8913400000 -1.0962300000  0.0000000000  0.0000000000  0.0000000000
  0.0000000000  0.0004900000 -0.2463620000  0.0278340000 -0.0434980000 -0.1078890000  1.0000000000  0.0000000000  0.0000000000
  0.0000000000  0.0000000000  0.0000000000  0.0000000000  0.0000000000  0.0000000000  0.0000000000  1.0000000000  0.0000000000
  0.0000000000  0.0000000000  0.0000000000  0.0000000000  0.0000000000  0.0000000000  0.0000000000  0.0000000000  1.0000000000
* d-type functions
   13    7
        313.10900000
         92.52760000
         35.41910000
         15.15770000
          6.90964000
          3.27256000
          1.54936000
          0.71709400
          0.31931000
          0.13415700
          0.05140000
          4.68510000
          2.42170000
  0.0003590000 -0.0003660000 -0.0005780000 -0.0007350000  0.0000000000  0.0000000000  0.0000000000
  0.0031830000 -0.0032550000 -0.0051700000 -0.0066420000  0.0000000000  0.0000000000  0.0000000000
  0.0160470000 -0.0164410000 -0.0263440000 -0.0338840000  0.0000000000  0.0000000000  0.0000000000
  0.0537480000 -0.0558650000 -0.0919750000 -0.1226080000  0.0000000000  0.0000000000  0.0000000000
  0.1349810000 -0.1438070000 -0.2428130000 -0.3500800000  0.0000000000  0.0000000000  0.0000000000
  0.2407980000 -0.2453650000 -0.3418720000 -0.3191570000  0.0000000000  0.0000000000  0.0000000000
  0.3099540000 -0.2370140000 -0.0269540000  0.7228530000  0.0000000000  0.0000000000  0.0000000000
  0.3033480000  0.0168210000  0.6038520000  0.4559420000  0.0000000000  0.0000000000  0.0000000000
  0.2162990000  0.3826800000  0.3360190000 -1.0589930000  0.0000000000  0.0000000000  0.0000000000
  0.0917180000  0.4703680000 -0.5511860000  0.1545530000  0.0000000000  0.0000000000  0.0000000000
  0.0114860000  0.1551630000 -0.3272110000  0.5780840000  1.0000000000  0.0000000000  0.0000000000
  0.0000000000  0.0000000000  0.0000000000  0.0000000000  0.0000000000  1.0000000000  0.0000000000
  0.0000000000  0.0000000000  0.0000000000  0.0000000000  0.0000000000  0.0000000000  1.0000000000
* f-type functions
    4    4
          6.65400000
          2.76760000
          1.15110000
          0.38120000
  1.0000000000  0.0000000000  0.0000000000  0.0000000000
  0.0000000000  1.0000000000  0.0000000000  0.0000000000
  0.0000000000  0.0000000000  1.0000000000  0.0000000000
  0.0000000000  0.0000000000  0.0000000000  1.0000000000
* g-type functions
    3    3
          5.46830000
          2.33270000
          0.85200000
  1.0000000000  0.0000000000  0.0000000000
  0.0000000000  1.0000000000  0.0000000000
  0.0000000000  0.0000000000  1.0000000000
* h-type functions
    2    2
          5.11850000
          1.96600000
  1.0000000000  0.0000000000
  0.0000000000  1.0000000000

/Fe.cc-pwCVQZ-DK.Balabanov.24s20p13d4f3g2h.10s9p7d4f3g2h.
N.B. Balabanov, K.A. Peterson. J. Chem. Phys. 123 (2005) 064107. doi:10.1063/1.1998907
IRON (24s,20p,13d,4f,3g,2h) -> [10s,9p,7d,4f,3g,2h]
    26.0   5
* s-type functions
   24   10
   13277140.00000000
    1987888.00000000
     452387.10000000
     128143.70000000
      41809.17000000
      15095.33000000
       5888.43800000
       2442.87600000
       1065.85700000
        484.90960000
        228.45850000
        110.74530000
         54.43116000
         25.01096000
         12.59262000
          6.32320200
          2.88338400
          1.38286800
          0.63220100
          0.14923800
          0.06849400
          0.03038100
          5.79000000
          1.73350000
  0.0000600000 -0.0000310000  0.0000070000 -0.0000020000 -0.0000030000 -0.0000050000 -0.0000060000  0.0000000000  0.0000000000  0.0000000000
  0.0001700000 -0.0000880000  0.0000210000 -0.0000040000 -0.0000090000 -0.0000150000 -0.0000170000  0.0000000000  0.0000000000  0.0000000000
  0.0004500000 -0.0002320000  0.0000540000 -0.0000120000 -0.0000240000 -0.0000390000 -0.0000450000  0.0000000000  0.0000000000  0.0000000000
  0.0010930000 -0.0005650000  0.0001320000 -0.0000290000 -0.0000590000 -0.0000960000 -0.0001070000  0.0000000000  0.0000000000  0.0000000000
  0.0026130000 -0.0013530000  0.0003160000 -0.0000690000 -0.0001370000 -0.0002240000 -0.0002720000  0.0000000000  0.0000000000  0.0000000000
  0.0062600000 -0.0032560000  0.0007640000 -0.0001670000 -0.0003440000 -0.0005620000 -0.0005940000  0.0000000000  0.0000000000  0.0000000000
  0.0151950000 -0.0079480000  0.0018690000 -0.0004080000 -0.0007940000 -0.0013010000 -0.0016900000  0.0000000000  0.0000000000  0.0000000000
  0.0365770000 -0.0194130000  0.0046210000 -0.0010090000 -0.0021300000 -0.0034750000 -0.0033830000  0.0000000000  0.0000000000  0.0000000000
  0.0833750000 -0.0453820000  0.0109610000 -0.0023900000 -0.0045440000 -0.0074620000 -0.0105020000  0.0000000000  0.0000000000  0.0000000000
  0.1676340000 -0.0967990000  0.0243640000 -0.0053290000 -0.0115700000 -0.0188700000 -0.0164400000  0.0000000000  0.0000000000  0.0000000000
  0.2688600000 -0.1739720000  0.0465960000 -0.0101780000 -0.0184810000 -0.0305680000 -0.0496220000  0.0000000000  0.0000000000  0.0000000000
  0.2852350000 -0.2350940000  0.0713740000 -0.0157200000 -0.0369330000 -0.0602890000 -0.0365410000  0.0000000000  0.0000000000  0.0000000000
  0.1525320000 -0.1511880000  0.0498900000 -0.0109200000 -0.0115290000 -0.0205920000 -0.0969090000  0.0000000000  0.0000000000  0.0000000000
  0.0633810000  0.2012780000 -0.0995880000  0.0220630000  0.0192290000  0.0357860000  0.2140750000  0.0000000000  0.0000000000  0.0000000000
  0.0967240000  0.5494000000 -0.3739230000  0.0880750000  0.2443040000  0.4216870000  0.2010450000  0.0000000000  0.0000000000  0.0000000000
  0.0654700000  0.3609330000 -0.3489040000  0.0836500000  0.0827020000  0.2092330000  0.9699410000  0.0000000000  0.0000000000  0.0000000000
  0.0079630000  0.0465600000  0.2920800000 -0.0817500000 -0.0399450000 -0.4975030000 -3.1426280000  0.0000000000  0.0000000000  0.0000000000
 -0.0002530000 -0.0040160000  0.6871120000 -0.2293920000 -1.0397040000 -1.8683190000  2.1267050000  0.0000000000  0.0000000000  0.0000000000
 -0.0000320000 -0.0004730000  0.3152790000 -0.2098240000  0.4953030000  2.7545840000  0.6989570000  0.0000000000  0.0000000000  0.0000000000
 -0.0000070000 -0.0002090000  0.0138550000  0.3095030000  1.6957440000 -0.8331090000 -3.7298890000  0.0000000000  0.0000000000  0.0000000000
  0.0000190000  0.0002150000 -0.0034390000  0.5849850000 -0.9636980000 -1.2311520000  5.1457330000  0.0000000000  0.0000000000  0.0000000000
  0.0000030000 -0.0000210000  0.0021510000  0.2627910000 -0.6036830000  1.3986490000 -2.5275980000  1.0000000000  0.0000000000  0.0000000000
  0.0000000000  0.0000000000  0.0000000000  0.0000000000  0.0000000000  0.0000000000  0.0000000000  0.0000000000  1.0000000000  0.0000000000
  0.0000000000  0.0000000000  0.0000000000  0.0000000000  0.0000000000  0.0000000000  0.0000000000  0.0000000000  0.0000000000  1.0000000000
* p-type functions
   20    9
      38282.05000000
       9061.55600000
       2944.45000000
       1128.15800000
        480.33800000
        220.13680000
        106.54820000
         53.74262000
         27.86318000
         14.74382000
          7.89335100
          4.17949700
          2.16566900
          1.09724000
          0.53608500
          0.20245300
          0.08169500
          0.03261400
          8.36870000
          2.26010000
  0.0000510000 -0.0000180000  0.0000040000  0.0000060000  0.0000130000 -0.0000160000  0.0000000000  0.0000000000  0.0000000000
  0.0001930000 -0.0000680000  0.0000150000  0.0000230000  0.0000460000 -0.0000650000  0.0000000000  0.0000000000  0.0000000000
  0.0008070000 -0.0002850000  0.0000620000  0.0000960000  0.0002060000 -0.0002560000  0.0000000000  0.0000000000  0.0000000000
  0.0030540000 -0.0010820000  0.0002350000  0.0003580000  0.0007160000 -0.0010400000  0.0000000000  0.0000000000  0.0000000000
  0.0105910000 -0.0037730000  0.0008270000  0.0012700000  0.0027590000 -0.0033700000  0.0000000000  0.0000000000  0.0000000000
  0.0321420000 -0.0116110000  0.0025220000  0.0038420000  0.0076430000 -0.0112410000  0.0000000000  0.0000000000  0.0000000000
  0.0836490000 -0.0309030000  0.0067960000  0.0104410000  0.0228730000 -0.0275820000  0.0000000000  0.0000000000  0.0000000000
  0.1771500000 -0.0678610000  0.0147820000  0.0224790000  0.0440810000 -0.0670210000  0.0000000000  0.0000000000  0.0000000000
  0.2890860000 -0.1153490000  0.0256530000  0.0395990000  0.0899840000 -0.1006940000  0.0000000000  0.0000000000  0.0000000000
  0.3291570000 -0.1389140000  0.0303130000  0.0459830000  0.0853400000 -0.1703110000  0.0000000000  0.0000000000  0.0000000000
  0.2104230000 -0.0466250000  0.0102010000  0.0175790000  0.0772780000 -0.0783230000  0.0000000000  0.0000000000  0.0000000000
  0.0551740000  0.1946700000 -0.0531930000 -0.0850280000 -0.2972450000  0.6077450000  0.0000000000  0.0000000000  0.0000000000
  0.0015110000  0.4040100000 -0.1036780000 -0.1609090000 -0.4067180000  0.9645760000  0.0000000000  0.0000000000  0.0000000000
 -0.0021830000  0.3786780000 -0.1209980000 -0.1945280000 -0.3121550000 -1.7927730000  0.0000000000  0.0000000000  0.0000000000
 -0.0012180000  0.1665960000  0.0031080000  0.0582050000  1.2052550000 -0.0262890000  0.0000000000  0.0000000000  0.0000000000
 -0.0000850000  0.0175340000  0.3283150000  0.6259810000  0.1894990000  1.5460990000  0.0000000000  0.0000000000  0.0000000000
 -0.0000020000 -0.0013550000  0.5422430000  0.4271460000 -0.8424540000 -1.0949690000  0.0000000000  0.0000000000  0.0000000000
 -0.0000010000  0.0005780000  0.2594080000  0.0173880000 -0.0168370000 -0.0548190000  1.0000000000  0.0000000000  0.0000000000
  0.0000000000  0.0000000000  0.0000000000  0.0000000000  0.0000000000  0.0000000000  0.0000000000  1.0000000000  0.0000000000
  0.0000000000  0.0000000000  0.0000000000  0.0000000000  0.0000000000  0.0000000000  0.0000000000  0.0000000000  1.0000000000
* d-type functions
   13    7
        350.99500000
        103.66700000
         39.70430000
         17.03100000
          7.78902000
          3.69955000
          1.75532000
          0.81284500
          0.36144100
          0.15134600
          0.05751300
          5.49670000
          2.89250000
  0.0003590000 -0.0003950000 -0.0005700000 -0.0008190000  0.0000000000  0.0000000000  0.0000000000
  0.0031850000 -0.0035300000 -0.0051170000 -0.0070130000  0.0000000000  0.0000000000  0.0000000000
  0.0161760000 -0.0179410000 -0.0262340000 -0.0378470000  0.0000000000  0.0000000000  0.0000000000
  0.0545530000 -0.0614610000 -0.0920690000 -0.1314140000  0.0000000000  0.0000000000  0.0000000000
  0.1367300000 -0.1583160000 -0.2464400000 -0.4094000000  0.0000000000  0.0000000000  0.0000000000
  0.2420240000 -0.2693400000 -0.3502150000 -0.2893670000  0.0000000000  0.0000000000  0.0000000000
  0.3084870000 -0.2412260000  0.0307360000  0.9175770000  0.0000000000  0.0000000000  0.0000000000
  0.3004030000  0.0585700000  0.6477360000  0.2020840000  0.0000000000  0.0000000000  0.0000000000
  0.2164630000  0.4116150000  0.2400240000 -1.0761670000  0.0000000000  0.0000000000  0.0000000000
  0.0943300000  0.4361600000 -0.6048030000  0.4017690000  0.0000000000  0.0000000000  0.0000000000
  0.0124050000  0.1168730000 -0.2676860000  0.4150380000  1.0000000000  0.0000000000  0.0000000000
  0.0000000000  0.0000000000  0.0000000000  0.0000000000  0.0000000000  1.0000000000  0.0000000000
  0.0000000000  0.0000000000  0.0000000000  0.0000000000  0.0000000000  0.0000000000  1.0000000000
* f-type functions
    4    4
          7.78280000
          3.25840000
          1.36410000
          0.45640000
  1.0000000000  0.0000000000  0.0000000000  0.0000000000
  0.0000000000  1.0000000000  0.0000000000  0.0000000000
  0.0000000000  0.0000000000  1.0000000000  0.0000000000
  0.0000000000  0.0000000000  0.0000000000  1.0000000000
* g-type functions
    3    3
          6.38160000
          2.77170000
          1.05050000
  1.0000000000  0.0000000000  0.0000000000
  0.0000000000  1.0000000000  0.0000000000
  0.0000000000  0.0000000000  1.0000000000
* h-type functions
    2    2
          5.89640000
          2.34480000
  1.0000000000  0.0000000000
  0.0000000000  1.0000000000

/Co.cc-pwCVQZ-DK.Balabanov.24s20p13d4f3g2h.10s9p7d4f3g2h.
N.B. Balabanov, K.A. Peterson. J. Chem. Phys. 123 (2005) 064107. doi:10.1063/1.1998907
COBALT (24s,20p,13d,4f,3g,2h) -> [10s,9p,7d,4f,3g,2h]
    27.0   5
* s-type functions
   24   10
   14370220.00000000
    2151540.00000000
     489625.70000000
     138690.30000000
      45249.89000000
      16337.62000000
       6373.07300000
       2643.95800000
       1153.61400000
        524.86060000
        247.30690000
        119.90630000
         58.96429000
         27.13616000
         13.68912000
          6.88277100
          3.14464700
          1.50626600
          0.68726800
          0.16097200
          0.07301700
          0.03207100
          6.24510000
          1.77520000
  0.0000630000 -0.0000330000  0.0000080000 -0.0000020000 -0.0000030000 -0.0000060000 -0.0000060000  0.0000000000  0.0000000000  0.0000000000
  0.0001780000 -0.0000940000  0.0000220000 -0.0000050000 -0.0000090000 -0.0000160000 -0.0000180000  0.0000000000  0.0000000000  0.0000000000
  0.0004680000 -0.0002460000  0.0000570000 -0.0000120000 -0.0000240000 -0.0000420000 -0.0000470000  0.0000000000  0.0000000000  0.0000000000
  0.0011300000 -0.0005960000  0.0001390000 -0.0000300000 -0.0000590000 -0.0001020000 -0.0001110000  0.0000000000  0.0000000000  0.0000000000
  0.0026830000 -0.0014180000  0.0003300000 -0.0000700000 -0.0001380000 -0.0002390000 -0.0002800000  0.0000000000  0.0000000000  0.0000000000
  0.0063740000 -0.0033820000  0.0007910000 -0.0001690000 -0.0003430000 -0.0005910000 -0.0006050000  0.0000000000  0.0000000000  0.0000000000
  0.0153380000 -0.0081850000  0.0019200000 -0.0004100000 -0.0007880000 -0.0013670000 -0.0017140000  0.0000000000  0.0000000000  0.0000000000
  0.0366560000 -0.0198490000  0.0047140000 -0.0010070000 -0.0020850000 -0.0035830000 -0.0033760000  0.0000000000  0.0000000000  0.0000000000
  0.0831830000 -0.0461910000  0.0111330000 -0.0023760000 -0.0044670000 -0.0077820000 -0.0105710000  0.0000000000  0.0000000000  0.0000000000
  0.1668550000 -0.0982720000  0.0246990000 -0.0052860000 -0.0112370000 -0.0192710000 -0.0161940000  0.0000000000  0.0000000000  0.0000000000
  0.2672920000 -0.1763040000  0.0472060000 -0.0100900000 -0.0181850000 -0.0320140000 -0.0500370000  0.0000000000  0.0000000000  0.0000000000
  0.2833740000 -0.2377920000  0.0722950000 -0.0155790000 -0.0356690000 -0.0609120000 -0.0349470000  0.0000000000  0.0000000000  0.0000000000
  0.1517480000 -0.1523860000  0.0503830000 -0.0107950000 -0.0119320000 -0.0236150000 -0.0993410000  0.0000000000  0.0000000000  0.0000000000
  0.0652490000  0.2036220000 -0.1023930000  0.0222270000  0.0212370000  0.0437420000  0.2194560000  0.0000000000  0.0000000000  0.0000000000
  0.1004050000  0.5501680000 -0.3802180000  0.0876570000  0.2348300000  0.4195750000  0.1784260000  0.0000000000  0.0000000000  0.0000000000
  0.0672310000  0.3578070000 -0.3454400000  0.0809210000  0.0848480000  0.2454930000  1.0401950000  0.0000000000  0.0000000000  0.0000000000
  0.0081260000  0.0457660000  0.3024920000 -0.0827610000 -0.0615640000 -0.5913480000 -3.3014820000  0.0000000000  0.0000000000  0.0000000000
 -0.0002610000 -0.0038900000  0.6860590000 -0.2246610000 -0.9633490000 -1.7723080000  2.3454950000  0.0000000000  0.0000000000  0.0000000000
 -0.0000390000 -0.0004840000  0.3089540000 -0.2015800000  0.4435460000  2.6790200000  0.5436570000  0.0000000000  0.0000000000  0.0000000000
 -0.0000080000 -0.0002010000  0.0132060000  0.3017660000  1.5994950000 -0.7274990000 -3.5761260000  0.0000000000  0.0000000000  0.0000000000
  0.0000140000  0.0001790000 -0.0031170000  0.5810930000 -0.7695260000 -1.2747080000  4.9421090000  0.0000000000  0.0000000000  0.0000000000
  0.0000010000 -0.0000260000  0.0020830000  0.2715420000 -0.7064190000  1.3667600000 -2.4272470000  1.0000000000  0.0000000000  0.0000000000
  0.0000000000  0.0000000000  0.0000000000  0.0000000000  0.0000000000  0.0000000000  0.0000000000  0.0000000000  1.0000000000  0.0000000000
  0.0000000000  0.0000000000  0.0000000000  0.0000000000  0.0000000000  0.0000000000  0.0000000000  0.0000000000  0.0000000000  1.0000000000
* p-type functions
   20    9
      41961.40000000
       9928.30600000
       3224.97100000
       1235.29300000
        525.84690000
        240.97620000
        116.64180000
         58.84834000
         30.52910000
         16.16943000
          8.66423600
          4.59194300
          2.38104800
          1.20624600
          0.58882200
          0.22489300
          0.09044800
          0.03582000
          9.41500000
          2.57580000
  0.0000530000 -0.0000190000  0.0000040000  0.0000070000  0.0000140000  0.0000180000  0.0000000000  0.0000000000  0.0000000000
  0.0001980000 -0.0000710000  0.0000160000  0.0000250000  0.0000490000  0.0000680000  0.0000000000  0.0000000000  0.0000000000
  0.0008160000 -0.0002910000  0.0000640000  0.0001030000  0.0002170000  0.0002720000  0.0000000000  0.0000000000  0.0000000000
  0.0030540000 -0.0010940000  0.0002400000  0.0003800000  0.0007530000  0.0010650000  0.0000000000  0.0000000000  0.0000000000
  0.0105440000 -0.0037960000  0.0008410000  0.0013410000  0.0028520000  0.0035430000  0.0000000000  0.0000000000  0.0000000000
  0.0319630000 -0.0116670000  0.0025640000  0.0040530000  0.0080000000  0.0114310000  0.0000000000  0.0000000000  0.0000000000
  0.0832750000 -0.0310950000  0.0069140000  0.0110330000  0.0236410000  0.0291160000  0.0000000000  0.0000000000  0.0000000000
  0.1768010000 -0.0684730000  0.0150970000  0.0238220000  0.0464590000  0.0681050000  0.0000000000  0.0000000000  0.0000000000
  0.2892520000 -0.1168130000  0.0262560000  0.0421320000  0.0930840000  0.1082440000  0.0000000000  0.0000000000  0.0000000000
  0.3294090000 -0.1403400000  0.0310480000  0.0489260000  0.0921130000  0.1709700000  0.0000000000  0.0000000000  0.0000000000
  0.2103030000 -0.0455310000  0.0100640000  0.0182370000  0.0774220000  0.1038320000  0.0000000000  0.0000000000  0.0000000000
  0.0551480000  0.1979890000 -0.0546020000 -0.0927790000 -0.3214270000 -0.7477390000  0.0000000000  0.0000000000  0.0000000000
  0.0015780000  0.4052460000 -0.1063460000 -0.1742910000 -0.4386490000 -0.8092780000  0.0000000000  0.0000000000  0.0000000000
 -0.0021450000  0.3766180000 -0.1210550000 -0.1949580000 -0.2191060000  1.8373640000  0.0000000000  0.0000000000  0.0000000000
 -0.0011880000  0.1642500000  0.0063130000  0.0866440000  1.1794450000 -0.1406610000  0.0000000000  0.0000000000  0.0000000000
 -0.0000800000  0.0173260000  0.3283220000  0.6196070000  0.1324390000 -1.4398920000  0.0000000000  0.0000000000  0.0000000000
 -0.0000030000 -0.0011590000  0.5404380000  0.4155170000 -0.8109210000  1.0498300000  0.0000000000  0.0000000000  0.0000000000
  0.0000000000  0.0005260000  0.2615400000  0.0200760000 -0.0250470000  0.0670810000  1.0000000000  0.0000000000  0.0000000000
  0.0000000000  0.0000000000  0.0000000000  0.0000000000  0.0000000000  0.0000000000  0.0000000000  1.0000000000  0.0000000000
  0.0000000000  0.0000000000  0.0000000000  0.0000000000  0.0000000000  0.0000000000  0.0000000000  0.0000000000  1.0000000000
* d-type functions
   13    7
        371.56600000
        110.11500000
         42.42550000
         18.33690000
          8.45730000
          4.04179000
          1.92603000
          0.89428100
          0.39798800
          0.16650000
          0.06302500
          6.27480000
          3.30970000
  0.0003980000 -0.0004600000 -0.0006110000 -0.0009190000  0.0000000000  0.0000000000  0.0000000000
  0.0034810000 -0.0040610000 -0.0054160000 -0.0075970000  0.0000000000  0.0000000000  0.0000000000
  0.0173620000 -0.0202580000 -0.0272350000 -0.0410110000  0.0000000000  0.0000000000  0.0000000000
  0.0576820000 -0.0685820000 -0.0942080000 -0.1379990000  0.0000000000  0.0000000000  0.0000000000
  0.1418110000 -0.1734630000 -0.2495960000 -0.4392740000  0.0000000000  0.0000000000  0.0000000000
  0.2456560000 -0.2858720000 -0.3440740000 -0.2345360000  0.0000000000  0.0000000000  0.0000000000
  0.3075020000 -0.2288420000  0.0830320000  0.9736790000  0.0000000000  0.0000000000  0.0000000000
  0.2955950000  0.1000240000  0.6510980000  0.0750400000  0.0000000000  0.0000000000  0.0000000000
  0.2121670000  0.4213280000  0.1778030000 -1.0306680000  0.0000000000  0.0000000000  0.0000000000
  0.0928960000  0.4054680000 -0.6155820000  0.4434900000  0.0000000000  0.0000000000  0.0000000000
  0.0124420000  0.1025170000 -0.2569250000  0.3813660000  1.0000000000  0.0000000000  0.0000000000
  0.0000000000  0.0000000000  0.0000000000  0.0000000000  0.0000000000  1.0000000000  0.0000000000
  0.0000000000  0.0000000000  0.0000000000  0.0000000000  0.0000000000  0.0000000000  1.0000000000
* f-type functions
    4    4
          8.97240000
          3.77730000
          1.59020000
          0.53630000
  1.0000000000  0.0000000000  0.0000000000  0.0000000000
  0.0000000000  1.0000000000  0.0000000000  0.0000000000
  0.0000000000  0.0000000000  1.0000000000  0.0000000000
  0.0000000000  0.0000000000  0.0000000000  1.0000000000
* g-type functions
    3    3
          7.33770000
          3.22540000
          1.25100000
  1.0000000000  0.0000000000  0.0000000000
  0.0000000000  1.0000000000  0.0000000000
  0.0000000000  0.0000000000  1.0000000000
* h-type functions
    2    2
          6.71720000
          2.74850000
  1.0000000000  0.0000000000
  0.0000000000  1.0000000000

/Ni.cc-pwCVQZ-DK.Balabanov.24s20p13d4f3g2h.10s9p7d4f3g2h.
N.B. Balabanov, K.A. Peterson. J. Chem. Phys. 123 (2005) 064107. doi:10.1063/1.1998907
NICKEL (24s,20p,13d,4f,3g,2h) -> [10s,9p,7d,4f,3g,2h]
    28.0   5
* s-type functions
   24   10
   15503020.00000000
    2321071.00000000
     528180.20000000
     149604.00000000
      48809.07000000
      17622.39000000
       6874.20100000
       2851.85700000
       1244.33400000
        566.15470000
        266.78730000
        129.37520000
         63.65161000
         29.33302000
         14.82212000
          7.46051300
          3.41357600
          1.63288400
          0.74357900
          0.17259200
          0.07742000
          0.03370100
          6.75110000
          1.85780000
  0.0000680000 -0.0000310000  0.0000080000 -0.0000020000 -0.0000040000 -0.0000060000 -0.0000070000  0.0000000000  0.0000000000  0.0000000000
  0.0001920000 -0.0000870000  0.0000230000 -0.0000050000 -0.0000100000 -0.0000170000 -0.0000190000  0.0000000000  0.0000000000  0.0000000000
  0.0005030000 -0.0002280000  0.0000600000 -0.0000130000 -0.0000260000 -0.0000450000 -0.0000500000  0.0000000000  0.0000000000  0.0000000000
  0.0012080000 -0.0005490000  0.0001450000 -0.0000310000 -0.0000630000 -0.0001080000 -0.0001170000  0.0000000000  0.0000000000  0.0000000000
  0.0028490000 -0.0012970000  0.0003430000 -0.0000730000 -0.0001460000 -0.0002530000 -0.0002940000  0.0000000000  0.0000000000  0.0000000000
  0.0067150000 -0.0030720000  0.0008140000 -0.0001730000 -0.0003590000 -0.0006140000 -0.0006290000  0.0000000000  0.0000000000  0.0000000000
  0.0160260000 -0.0073790000  0.0019600000 -0.0004150000 -0.0008240000 -0.0014330000 -0.0017690000  0.0000000000  0.0000000000  0.0000000000
  0.0380450000 -0.0178050000  0.0047790000 -0.0010130000 -0.0021470000 -0.0036470000 -0.0034530000  0.0000000000  0.0000000000  0.0000000000
  0.0860160000 -0.0413840000  0.0112410000 -0.0023810000 -0.0046300000 -0.0081260000 -0.0108110000  0.0000000000  0.0000000000  0.0000000000
  0.1724730000 -0.0884770000  0.0248800000 -0.0052860000 -0.0114660000 -0.0193360000 -0.0163970000  0.0000000000  0.0000000000  0.0000000000
  0.2771470000 -0.1605330000  0.0475220000 -0.0100820000 -0.0188850000 -0.0337780000 -0.0511320000  0.0000000000  0.0000000000  0.0000000000
  0.2968780000 -0.2211450000  0.0727080000 -0.0155550000 -0.0360910000 -0.0597330000 -0.0347730000  0.0000000000  0.0000000000  0.0000000000
  0.1607220000 -0.1429300000  0.0504870000 -0.0107280000 -0.0131930000 -0.0291950000 -0.1020090000  0.0000000000  0.0000000000  0.0000000000
  0.0532090000  0.2105090000 -0.1049100000  0.0225870000  0.0249350000  0.0576720000  0.2248130000  0.0000000000  0.0000000000  0.0000000000
  0.0670780000  0.5571780000 -0.3841580000  0.0878230000  0.2351510000  0.3962980000  0.1666290000  0.0000000000  0.0000000000  0.0000000000
  0.0451040000  0.3587470000 -0.3405100000  0.0787500000  0.0995590000  0.3262820000  1.1504080000  0.0000000000  0.0000000000  0.0000000000
  0.0051630000  0.0448050000  0.3128690000 -0.0841310000 -0.0991250000 -0.7659990000 -3.6677600000  0.0000000000  0.0000000000  0.0000000000
 -0.0001680000 -0.0047710000  0.6787890000 -0.2212350000 -0.9520230000 -1.5951110000  2.9089060000  0.0000000000  0.0000000000  0.0000000000
 -0.0000810000 -0.0009710000  0.3074190000 -0.1943700000  0.4790000000  2.6051560000  0.1233070000  0.0000000000  0.0000000000  0.0000000000
  0.0000000000 -0.0002250000  0.0146650000  0.2958150000  1.4997280000 -0.7647690000 -3.2568870000  0.0000000000  0.0000000000  0.0000000000
  0.0000000000  0.0001450000 -0.0039540000  0.5768850000 -0.6533590000 -1.1749130000  4.6303440000  0.0000000000  0.0000000000  0.0000000000
  0.0000010000 -0.0000420000  0.0022900000  0.2790590000 -0.7461110000  1.3047320000 -2.3072640000  1.0000000000  0.0000000000  0.0000000000
  0.0000000000  0.0000000000  0.0000000000  0.0000000000  0.0000000000  0.0000000000  0.0000000000  0.0000000000  1.0000000000  0.0000000000
  0.0000000000  0.0000000000  0.0000000000  0.0000000000  0.0000000000  0.0000000000  0.0000000000  0.0000000000  0.0000000000  1.0000000000
* p-type functions
   20    9
      45066.62000000
      10662.64000000
       3463.43100000
       1326.62400000
        564.74140000
        258.82880000
        125.31150000
         63.24233000
         32.82406000
         17.39692000
          9.32439400
          4.93883900
          2.56202500
          1.29929400
          0.63467800
          0.23259940
          0.09152300
          0.03557400
         10.45400000
          2.91560000
  0.0000570000 -0.0000200000  0.0000040000  0.0000090000  0.0000150000  0.0000210000  0.0000000000  0.0000000000  0.0000000000
  0.0002080000 -0.0000740000  0.0000150000  0.0000310000  0.0000540000  0.0000770000  0.0000000000  0.0000000000  0.0000000000
  0.0008460000 -0.0003020000  0.0000620000  0.0001290000  0.0002330000  0.0003040000  0.0000000000  0.0000000000  0.0000000000
  0.0031340000 -0.0011260000  0.0002270000  0.0004670000  0.0008060000  0.0011710000  0.0000000000  0.0000000000  0.0000000000
  0.0107650000 -0.0038860000  0.0007940000  0.0016690000  0.0030230000  0.0039020000  0.0000000000  0.0000000000  0.0000000000
  0.0325410000 -0.0119180000  0.0024100000  0.0049420000  0.0085050000  0.0124890000  0.0000000000  0.0000000000  0.0000000000
  0.0846200000 -0.0317080000  0.0065010000  0.0137030000  0.0249740000  0.0320120000  0.0000000000  0.0000000000  0.0000000000
  0.1792530000 -0.0697490000  0.0141420000  0.0288820000  0.0493100000  0.0742030000  0.0000000000  0.0000000000  0.0000000000
  0.2920770000 -0.1185830000  0.0246010000  0.0525090000  0.0977120000  0.1186720000  0.0000000000  0.0000000000  0.0000000000
  0.3290800000 -0.1405920000  0.0284870000  0.0575250000  0.0978230000  0.1888440000  0.0000000000  0.0000000000  0.0000000000
  0.2060500000 -0.0391820000  0.0079730000  0.0233410000  0.0747930000  0.1042450000  0.0000000000  0.0000000000  0.0000000000
  0.0521800000  0.2070370000 -0.0524750000 -0.1314790000 -0.3728930000 -0.9857230000  0.0000000000  0.0000000000  0.0000000000
  0.0007930000  0.4068660000 -0.0961500000 -0.2125180000 -0.4521070000 -0.5224120000  0.0000000000  0.0000000000  0.0000000000
 -0.0024970000  0.3672130000 -0.1098910000 -0.2149510000 -0.0831810000  2.0084850000  0.0000000000  0.0000000000  0.0000000000
 -0.0013400000  0.1625320000  0.0052770000  0.2264290000  1.1810810000 -0.6516730000  0.0000000000  0.0000000000  0.0000000000
 -0.0000960000  0.0179490000  0.3160560000  0.6390330000 -0.0996300000 -1.0910670000  0.0000000000  0.0000000000  0.0000000000
  0.0000050000 -0.0016100000  0.5414170000  0.3129740000 -0.7437020000  1.0098080000  0.0000000000  0.0000000000  0.0000000000
 -0.0000020000  0.0006620000  0.2756610000  0.0120040000  0.0004090000  0.0082650000  1.0000000000  0.0000000000  0.0000000000
  0.0000000000  0.0000000000  0.0000000000  0.0000000000  0.0000000000  0.0000000000  0.0000000000  1.0000000000  0.0000000000
  0.0000000000  0.0000000000  0.0000000000  0.0000000000  0.0000000000  0.0000000000  0.0000000000  0.0000000000  1.0000000000
* d-type functions
   13    7
        432.27418870
        127.45702980
         48.83096424
         21.01674656
          9.65710264
          4.60305286
          2.18924426
          1.01439313
          0.45035253
          0.18765306
          0.07047793
          6.88680000
          3.56960000
  0.0003510000 -0.0003600000  0.0005070000 -0.0007300000  0.0000000000  0.0000000000  0.0000000000
  0.0031160000 -0.0032190000  0.0045770000 -0.0062770000  0.0000000000  0.0000000000  0.0000000000
  0.0160110000 -0.0165480000  0.0235490000 -0.0340630000  0.0000000000  0.0000000000  0.0000000000
  0.0546140000 -0.0572710000  0.0831870000 -0.1184390000  0.0000000000  0.0000000000  0.0000000000
  0.1364950000 -0.1468730000  0.2210890000 -0.3663900000  0.0000000000  0.0000000000  0.0000000000
  0.2389110000 -0.2479010000  0.3398130000 -0.3205530000  0.0000000000  0.0000000000  0.0000000000
  0.3000020000 -0.2234890000  0.0390780000  0.6939770000  0.0000000000  0.0000000000  0.0000000000
  0.2906960000  0.0132390000 -0.5221520000  0.4623840000  0.0000000000  0.0000000000  0.0000000000
  0.2209770000  0.3104770000 -0.3950570000 -0.8214790000  0.0000000000  0.0000000000  0.0000000000
  0.1203230000  0.4522510000  0.3656590000 -0.1860170000  0.0000000000  0.0000000000  0.0000000000
  0.0333690000  0.2588190000  0.4874920000  0.6643020000  1.0000000000  0.0000000000  0.0000000000
  0.0000000000  0.0000000000  0.0000000000  0.0000000000  0.0000000000  1.0000000000  0.0000000000
  0.0000000000  0.0000000000  0.0000000000  0.0000000000  0.0000000000  0.0000000000  1.0000000000
* f-type functions
    4    4
         10.23600000
          4.34580000
          1.84500000
          0.63020000
  1.0000000000  0.0000000000  0.0000000000  0.0000000000
  0.0000000000  1.0000000000  0.0000000000  0.0000000000
  0.0000000000  0.0000000000  1.0000000000  0.0000000000
  0.0000000000  0.0000000000  0.0000000000  1.0000000000
* g-type functions
    3    3
          8.48030000
          3.78750000
          1.52150000
  1.0000000000  0.0000000000  0.0000000000
  0.0000000000  1.0000000000  0.0000000000
  0.0000000000  0.0000000000  1.0000000000
* h-type functions
    2    2
          7.59530000
          3.19480000
  1.0000000000  0.0000000000
  0.0000000000  1.0000000000

/Cu.cc-pwCVQZ-DK.Balabanov.24s20p13d4f3g2h.10s9p7d4f3g2h.
N.B. Balabanov, K.A. Peterson. J. Chem. Phys. 123 (2005) 064107. doi:10.1063/1.1998907
COPPER (24s,20p,13d,4f,3g,2h) -> [10s,9p,7d,4f,3g,2h]
    29.0   5
* s-type functions
   24   10
   16665490.00000000
    2495213.00000000
     567850.70000000
     160853.10000000
      52481.86000000
      18948.85000000
       7391.65500000
       3066.51700000
       1337.99400000
        608.78300000
        286.89800000
        139.15300000
         68.49455000
         31.60108000
         15.99158000
          8.05651000
          3.69032900
          1.76290200
          0.80126900
          0.18424300
          0.08179300
          0.03530300
          7.23100000
          1.90800000
  0.0000690000 -0.0000390000  0.0000090000 -0.0000020000 -0.0000030000 -0.0000070000 -0.0000070000  0.0000000000  0.0000000000  0.0000000000
  0.0001920000 -0.0001080000  0.0000240000 -0.0000050000 -0.0000090000 -0.0000190000 -0.0000200000  0.0000000000  0.0000000000  0.0000000000
  0.0005020000 -0.0002830000  0.0000640000 -0.0000130000 -0.0000240000 -0.0000490000 -0.0000520000  0.0000000000  0.0000000000  0.0000000000
  0.0012000000 -0.0006760000  0.0001530000 -0.0000310000 -0.0000590000 -0.0001170000 -0.0001210000  0.0000000000  0.0000000000  0.0000000000
  0.0028120000 -0.0015880000  0.0003590000 -0.0000730000 -0.0001370000 -0.0002720000 -0.0003000000  0.0000000000  0.0000000000  0.0000000000
  0.0065760000 -0.0037300000  0.0008470000 -0.0001730000 -0.0003320000 -0.0006580000 -0.0006410000  0.0000000000  0.0000000000  0.0000000000
  0.0155630000 -0.0088800000  0.0020240000 -0.0004130000 -0.0007580000 -0.0015150000 -0.0017830000  0.0000000000  0.0000000000  0.0000000000
  0.0366600000 -0.0212230000  0.0049000000 -0.0010020000 -0.0019560000 -0.0038590000 -0.0034630000  0.0000000000  0.0000000000  0.0000000000
  0.0824010000 -0.0488990000  0.0114730000 -0.0023440000 -0.0042140000 -0.0084690000 -0.0107780000  0.0000000000  0.0000000000  0.0000000000
  0.1643320000 -0.1033220000  0.0253410000 -0.0051920000 -0.0103720000 -0.0203920000 -0.0163220000  0.0000000000  0.0000000000  0.0000000000
  0.2621450000 -0.1841780000  0.0483250000 -0.0098910000 -0.0171440000 -0.0348960000 -0.0508210000  0.0000000000  0.0000000000  0.0000000000
  0.2764660000 -0.2462790000  0.0738920000 -0.0152450000 -0.0325260000 -0.0634080000 -0.0344510000  0.0000000000  0.0000000000  0.0000000000
  0.1478900000 -0.1557580000  0.0509150000 -0.0104490000 -0.0120170000 -0.0280780000 -0.1011720000  0.0000000000  0.0000000000  0.0000000000
  0.0715990000  0.2083890000 -0.1083140000  0.0225660000  0.0239630000  0.0570580000  0.2246670000  0.0000000000  0.0000000000  0.0000000000
  0.1144220000  0.5500740000 -0.3914490000  0.0864480000  0.2119610000  0.4302750000  0.1699430000  0.0000000000  0.0000000000  0.0000000000
  0.0747330000  0.3499800000 -0.3369910000  0.0753310000  0.0842800000  0.2973020000  1.1132610000  0.0000000000  0.0000000000  0.0000000000
  0.0089010000  0.0438090000  0.3223440000 -0.0842130000 -0.0894720000 -0.7723650000 -3.5632140000  0.0000000000  0.0000000000  0.0000000000
 -0.0003240000 -0.0036690000  0.6829570000 -0.2151650000 -0.8091960000 -1.5798620000  2.7675090000  0.0000000000  0.0000000000  0.0000000000
 -0.0000580000 -0.0005070000  0.2970280000 -0.1866230000  0.3242170000  2.5350850000  0.2188800000  0.0000000000  0.0000000000  0.0000000000
 -0.0000130000 -0.0001860000  0.0119740000  0.2899280000  1.4472890000 -0.5516530000 -3.2660310000  0.0000000000  0.0000000000  0.0000000000
  0.0000070000  0.0001150000 -0.0026920000  0.5722780000 -0.4431320000 -1.3122570000  4.5609720000  0.0000000000  0.0000000000  0.0000000000
 -0.0000030000 -0.0000390000  0.0019110000  0.2871010000 -0.8818480000  1.2818610000 -2.2479630000  1.0000000000  0.0000000000  0.0000000000
  0.0000000000  0.0000000000  0.0000000000  0.0000000000  0.0000000000  0.0000000000  0.0000000000  0.0000000000  1.0000000000  0.0000000000
  0.0000000000  0.0000000000  0.0000000000  0.0000000000  0.0000000000  0.0000000000  0.0000000000  0.0000000000  0.0000000000  1.0000000000
* p-type functions
   20    9
      48218.41000000
      11420.55000000
       3713.56900000
       1423.76200000
        606.60410000
        278.25640000
        134.84490000
         68.12254000
         35.40088000
         18.79029000
         10.08356000
          5.34612000
          2.77522800
          1.40756400
          0.68721300
          0.24739700
          0.09618700
          0.03694800
         11.92180000
          3.23250000
  0.0000610000 -0.0000220000  0.0000040000  0.0000090000  0.0000170000  0.0000210000  0.0000000000  0.0000000000  0.0000000000
  0.0002180000 -0.0000790000  0.0000150000  0.0000300000  0.0000580000  0.0000800000  0.0000000000  0.0000000000  0.0000000000
  0.0008730000 -0.0003170000  0.0000620000  0.0001240000  0.0002460000  0.0002990000  0.0000000000  0.0000000000  0.0000000000
  0.0031990000 -0.0011670000  0.0002260000  0.0004430000  0.0008420000  0.0011990000  0.0000000000  0.0000000000  0.0000000000
  0.0109150000 -0.0040020000  0.0007840000  0.0015740000  0.0031310000  0.0037440000  0.0000000000  0.0000000000  0.0000000000
  0.0328650000 -0.0122280000  0.0023700000  0.0046340000  0.0087870000  0.0127080000  0.0000000000  0.0000000000  0.0000000000
  0.0852580000 -0.0324630000  0.0063880000  0.0128440000  0.0257090000  0.0303320000  0.0000000000  0.0000000000  0.0000000000
  0.1802690000 -0.0712940000  0.0138590000  0.0269700000  0.0507520000  0.0759830000  0.0000000000  0.0000000000  0.0000000000
  0.2930290000 -0.1210220000  0.0241140000  0.0491200000  0.1002550000  0.1085020000  0.0000000000  0.0000000000  0.0000000000
  0.3282030000 -0.1421450000  0.0275710000  0.0529930000  0.1005250000  0.2051540000  0.0000000000  0.0000000000  0.0000000000
  0.2037720000 -0.0363680000  0.0070970000  0.0206170000  0.0733500000  0.0570150000  0.0000000000  0.0000000000  0.0000000000
  0.0514610000  0.2125470000 -0.0519240000 -0.1226650000 -0.3887260000 -0.9117820000  0.0000000000  0.0000000000  0.0000000000
  0.0013730000  0.4098670000 -0.0926040000 -0.1911910000 -0.4495470000 -0.5409620000  0.0000000000  0.0000000000  0.0000000000
 -0.0018930000  0.3653240000 -0.1055640000 -0.2074430000 -0.0766170000  1.9497620000  0.0000000000  0.0000000000  0.0000000000
 -0.0010340000  0.1559160000  0.0063780000  0.1926460000  1.1820700000 -0.5880390000  0.0000000000  0.0000000000  0.0000000000
 -0.0000600000  0.0154970000  0.3117760000  0.6490010000 -0.0996590000 -1.1302240000  0.0000000000  0.0000000000  0.0000000000
  0.0000000000 -0.0015450000  0.5407510000  0.3287320000 -0.7171210000  1.0441460000  0.0000000000  0.0000000000  0.0000000000
 -0.0000010000  0.0005930000  0.2820740000  0.0100040000  0.0054550000  0.0001280000  1.0000000000  0.0000000000  0.0000000000
  0.0000000000  0.0000000000  0.0000000000  0.0000000000  0.0000000000  0.0000000000  0.0000000000  1.0000000000  0.0000000000
  0.0000000000  0.0000000000  0.0000000000  0.0000000000  0.0000000000  0.0000000000  0.0000000000  0.0000000000  1.0000000000
* d-type functions
   13    7
        556.31700000
        163.69200000
         62.79730000
         27.24780000
         12.62980000
          6.10341000
          2.96544800
          1.41265300
          0.64984500
          0.28370100
          0.11332900
          8.48040000
          4.45530000
  0.0002610000 -0.0003240000  0.0003890000 -0.0006030000  0.0000000000  0.0000000000  0.0000000000
  0.0023440000 -0.0029180000  0.0035340000 -0.0050540000  0.0000000000  0.0000000000  0.0000000000
  0.0124860000 -0.0155940000  0.0189360000 -0.0293200000  0.0000000000  0.0000000000  0.0000000000
  0.0442820000 -0.0559610000  0.0689280000 -0.1016320000  0.0000000000  0.0000000000  0.0000000000
  0.1159340000 -0.1518160000  0.1972720000 -0.3526730000  0.0000000000  0.0000000000  0.0000000000
  0.2174500000 -0.2797870000  0.3487360000 -0.4213890000  0.0000000000  0.0000000000  0.0000000000
  0.2914210000 -0.2715330000  0.0597030000  0.7343300000  0.0000000000  0.0000000000  0.0000000000
  0.2983570000  0.0180900000 -0.5596990000  0.5564940000  0.0000000000  0.0000000000  0.0000000000
  0.2379860000  0.3562040000 -0.3880260000 -0.9765450000  0.0000000000  0.0000000000  0.0000000000
  0.1332530000  0.4201600000  0.4383270000 -0.0899130000  0.0000000000  0.0000000000  0.0000000000
  0.0351240000  0.1937780000  0.4888630000  0.6543320000  1.0000000000  0.0000000000  0.0000000000
  0.0000000000  0.0000000000  0.0000000000  0.0000000000  0.0000000000  1.0000000000  0.0000000000
  0.0000000000  0.0000000000  0.0000000000  0.0000000000  0.0000000000  0.0000000000  1.0000000000
* f-type functions
    4    4
         11.94630000
          5.03450000
          2.12170000
          0.72840000
  1.0000000000  0.0000000000  0.0000000000  0.0000000000
  0.0000000000  1.0000000000  0.0000000000  0.0000000000
  0.0000000000  0.0000000000  1.0000000000  0.0000000000
  0.0000000000  0.0000000000  0.0000000000  1.0000000000
* g-type functions
    3    3
          9.59340000
          4.30830000
          1.74940000
  1.0000000000  0.0000000000  0.0000000000
  0.0000000000  1.0000000000  0.0000000000
  0.0000000000  0.0000000000  1.0000000000
* h-type functions
    2    2
          8.57040000
          3.72930000
  1.0000000000  0.0000000000
  0.0000000000  1.0000000000

/Zn.cc-pwCVQZ-DK.Balabanov.24s20p13d4f3g2h.10s9p7d4f3g2h.
N.B. Balabanov, K.A. Peterson. J. Chem. Phys. 123 (2005) 064107. doi:10.1063/1.1998907
ZINC (24s,20p,13d,4f,3g,2h) -> [10s,9p,7d,4f,3g,2h]
    30.0   5
* s-type functions
   24   10
   17852930.00000000
    2673038.00000000
     608324.40000000
     172317.60000000
      56222.69000000
      20299.85000000
       7918.87100000
       3285.34000000
       1433.52400000
        652.28890000
        307.43600000
        149.14660000
         73.45108000
         33.92562000
         17.18947000
          8.66659500
          3.97250500
          1.89466500
          0.85938500
          0.19525600
          0.08585400
          0.03678100
          8.57510000
          3.24750000
  0.0000790000 -0.0000250000  0.0000090000 -0.0000020000 -0.0000050000  0.0000070000 -0.0000100000  0.0000000000  0.0000000000  0.0000000000
  0.0002200000 -0.0000690000  0.0000260000 -0.0000050000 -0.0000150000  0.0000210000 -0.0000280000  0.0000000000  0.0000000000  0.0000000000
  0.0005730000 -0.0001810000  0.0000690000 -0.0000140000 -0.0000390000  0.0000540000 -0.0000730000  0.0000000000  0.0000000000  0.0000000000
  0.0013640000 -0.0004320000  0.0001640000 -0.0000330000 -0.0000930000  0.0001270000 -0.0001710000  0.0000000000  0.0000000000  0.0000000000
  0.0031790000 -0.0010080000  0.0003820000 -0.0000770000 -0.0002130000  0.0002990000 -0.0004140000  0.0000000000  0.0000000000  0.0000000000
  0.0073820000 -0.0023580000  0.0008950000 -0.0001820000 -0.0005170000  0.0006950000 -0.0009140000  0.0000000000  0.0000000000  0.0000000000
  0.0173430000 -0.0055880000  0.0021220000 -0.0004290000 -0.0011580000  0.0016700000 -0.0023740000  0.0000000000  0.0000000000  0.0000000000
  0.0406290000 -0.0133770000  0.0051030000 -0.0010360000 -0.0030170000  0.0039400000 -0.0050120000  0.0000000000  0.0000000000  0.0000000000
  0.0911280000 -0.0311060000  0.0118880000 -0.0024050000 -0.0063280000  0.0094460000 -0.0139070000  0.0000000000  0.0000000000  0.0000000000
  0.1824150000 -0.0675820000  0.0261860000 -0.0053370000 -0.0159920000  0.0201520000 -0.0245170000  0.0000000000  0.0000000000  0.0000000000
  0.2944610000 -0.1266200000  0.0498050000 -0.0100900000 -0.0253830000  0.0404710000 -0.0633700000  0.0000000000  0.0000000000  0.0000000000
  0.3208580000 -0.1842860000  0.0759660000 -0.0156710000 -0.0508780000  0.0582110000 -0.0618520000  0.0000000000  0.0000000000  0.0000000000
  0.1763940000 -0.1210030000  0.0517660000 -0.0104000000 -0.0147930000  0.0480920000 -0.1068480000  0.0000000000  0.0000000000  0.0000000000
  0.0269500000  0.2220190000 -0.1129780000  0.0231260000  0.0305570000 -0.1061780000  0.2254310000  0.0000000000  0.0000000000  0.0000000000
 -0.0014620000  0.5609470000 -0.4012980000  0.0899450000  0.3475700000 -0.3822290000  0.5674800000  0.0000000000  0.0000000000  0.0000000000
  0.0009880000  0.3524860000 -0.3347370000  0.0735120000  0.1094030000 -0.5135870000  1.0107520000  0.0000000000  0.0000000000  0.0000000000
 -0.0004540000  0.0454330000  0.3331000000 -0.0850030000 -0.2208400000  1.5357960000 -5.5611700000  0.0000000000  0.0000000000  0.0000000000
  0.0001670000  0.0000520000  0.6889720000 -0.2289690000 -1.3044110000  0.6749030000  6.9915000000  0.0000000000  0.0000000000  0.0000000000
 -0.0000670000  0.0010090000  0.2848640000 -0.1810930000  1.0663570000 -2.5422360000 -3.5424600000  0.0000000000  0.0000000000  0.0000000000
  0.0000210000 -0.0001180000  0.0082440000  0.3479990000  1.4271740000  2.3368240000  0.0395280000  0.0000000000  0.0000000000  0.0000000000
 -0.0000150000  0.0000890000 -0.0030930000  0.5700400000 -1.2613610000 -0.9072220000  1.6266830000  0.0000000000  0.0000000000  0.0000000000
  0.0000050000 -0.0000280000  0.0007950000  0.2366770000 -0.1992220000 -0.4593710000 -1.3177160000  1.0000000000  0.0000000000  0.0000000000
  0.0000000000  0.0000000000  0.0000000000  0.0000000000  0.0000000000  0.0000000000  0.0000000000  0.0000000000  1.0000000000  0.0000000000
  0.0000000000  0.0000000000  0.0000000000  0.0000000000  0.0000000000  0.0000000000  0.0000000000  0.0000000000  0.0000000000  1.0000000000
* p-type functions
   20    9
      52867.93000000
      12511.79000000
       4065.28600000
       1557.59500000
        663.28920000
        304.15610000
        147.36800000
         74.45469000
         38.71493000
         20.57022000
         11.05425000
          5.87466100
          3.05293600
          1.54722500
          0.75415100
          0.26555300
          0.10190800
          0.03862300
         12.65890000
          3.44520000
  0.0000630000 -0.0000240000  0.0000040000  0.0000080000  0.0000170000 -0.0000220000  0.0000000000  0.0000000000  0.0000000000
  0.0002210000 -0.0000830000  0.0000150000  0.0000270000  0.0000580000 -0.0000800000  0.0000000000  0.0000000000  0.0000000000
  0.0008710000 -0.0003270000  0.0000610000  0.0001090000  0.0002460000 -0.0002860000  0.0000000000  0.0000000000  0.0000000000
  0.0031550000 -0.0011910000  0.0002180000  0.0003850000  0.0008210000 -0.0011850000  0.0000000000  0.0000000000  0.0000000000
  0.0107140000 -0.0040650000  0.0007550000  0.0013540000  0.0030900000 -0.0034930000  0.0000000000  0.0000000000  0.0000000000
  0.0322280000 -0.0124020000  0.0022760000  0.0040080000  0.0085000000 -0.0125320000  0.0000000000  0.0000000000  0.0000000000
  0.0837700000 -0.0329760000  0.0061530000  0.0110550000  0.0254170000 -0.0281370000  0.0000000000  0.0000000000  0.0000000000
  0.1778440000 -0.0726830000  0.0133900000  0.0234910000  0.0492100000 -0.0760000000  0.0000000000  0.0000000000  0.0000000000
  0.2905790000 -0.1239840000  0.0234670000  0.0425770000  0.1006690000 -0.0985060000  0.0000000000  0.0000000000  0.0000000000
  0.3275000000 -0.1462900000  0.0268920000  0.0468610000  0.0965090000 -0.2143670000  0.0000000000  0.0000000000  0.0000000000
  0.2059230000 -0.0402280000  0.0074420000  0.0177220000  0.0819270000 -0.0265110000  0.0000000000  0.0000000000  0.0000000000
  0.0549140000  0.2098190000 -0.0497760000 -0.1003030000 -0.3834010000  0.7728880000  0.0000000000  0.0000000000  0.0000000000
  0.0049090000  0.4113650000 -0.0890630000 -0.1633930000 -0.4182030000  0.6874980000  0.0000000000  0.0000000000  0.0000000000
  0.0009730000  0.3688220000 -0.1028810000 -0.1893930000 -0.1677070000 -1.8748440000  0.0000000000  0.0000000000  0.0000000000
  0.0001840000  0.1542010000  0.0042210000  0.1172440000  1.1948090000  0.3864500000  0.0000000000  0.0000000000  0.0000000000
  0.0000500000  0.0141420000  0.3049800000  0.6469500000 -0.0019210000  1.2436150000  0.0000000000  0.0000000000  0.0000000000
 -0.0000120000 -0.0015040000  0.5410500000  0.3799520000 -0.7337660000 -1.0725970000  0.0000000000  0.0000000000  0.0000000000
  0.0000030000  0.0005700000  0.2914200000  0.0090210000  0.0105150000  0.0032150000  1.0000000000  0.0000000000  0.0000000000
  0.0000000000  0.0000000000  0.0000000000  0.0000000000  0.0000000000  0.0000000000  0.0000000000  1.0000000000  0.0000000000
  0.0000000000  0.0000000000  0.0000000000  0.0000000000  0.0000000000  0.0000000000  0.0000000000  0.0000000000  1.0000000000
* d-type functions
   13    7
        690.08470000
        202.30660000
         77.44594000
         33.68378000
         15.66998000
          7.62247000
          3.74997800
          1.81815100
          0.85559700
          0.38384200
          0.15795200
          9.21060000
          5.19660000
  0.0002080000 -0.0002900000 -0.0003220000  0.0004570000  0.0000000000  0.0000000000  0.0000000000
  0.0018800000 -0.0026300000 -0.0029800000  0.0037910000  0.0000000000  0.0000000000  0.0000000000
  0.0103150000 -0.0145340000 -0.0163530000  0.0230360000  0.0000000000  0.0000000000  0.0000000000
  0.0379340000 -0.0539330000 -0.0616730000  0.0812020000  0.0000000000  0.0000000000  0.0000000000
  0.1028900000 -0.1524270000 -0.1858900000  0.2937930000  0.0000000000  0.0000000000  0.0000000000
  0.2026810000 -0.3000970000 -0.3750080000  0.4477370000  0.0000000000  0.0000000000  0.0000000000
  0.2845300000 -0.3103010000 -0.0401820000 -0.6033540000  0.0000000000  0.0000000000  0.0000000000
  0.3024300000  0.0218570000  0.6109590000 -0.6904040000  0.0000000000  0.0000000000  0.0000000000
  0.2489250000  0.3961220000  0.3386520000  0.9760680000  0.0000000000  0.0000000000  0.0000000000
  0.1422960000  0.3968090000 -0.4891340000  0.2286070000  0.0000000000  0.0000000000  0.0000000000
  0.0378200000  0.1396290000 -0.4651830000 -0.8074580000  1.0000000000  0.0000000000  0.0000000000
  0.0000000000  0.0000000000  0.0000000000  0.0000000000  0.0000000000  1.0000000000  0.0000000000
  0.0000000000  0.0000000000  0.0000000000  0.0000000000  0.0000000000  0.0000000000  1.0000000000
* f-type functions
    4    4
         13.14920000
          5.62060000
          2.40250000
          0.84030000
  1.0000000000  0.0000000000  0.0000000000  0.0000000000
  0.0000000000  1.0000000000  0.0000000000  0.0000000000
  0.0000000000  0.0000000000  1.0000000000  0.0000000000
  0.0000000000  0.0000000000  0.0000000000  1.0000000000
* g-type functions
    3    3
         10.76220000
          4.90100000
          2.03780000
  1.0000000000  0.0000000000  0.0000000000
  0.0000000000  1.0000000000  0.0000000000
  0.0000000000  0.0000000000  1.0000000000
* h-type functions
    2    2
          9.60560000
          4.33960000
  1.0000000000  0.0000000000
  0.0000000000  1.0000000000
