************************************************************************
* This file is part of OpenMolcas.                                     *
*                                                                      *
* OpenMolcas is free software; you can redistribute it and/or modify   *
* it under the terms of the GNU Lesser General Public License, v. 2.1. *
* OpenMolcas is distributed in the hope that it will be useful, but it *
* is provided "as is" and without any express or implied warranties.   *
* For more details see the full text of the license in the file        *
* LICENSE or in <http://www.gnu.org/licenses/>.                        *
************************************************************************
cc-pVDZ
/H.cc-pVDZ.Dunning.4s1p.2s1p..
T.H. Dunning, Jr. J. Chem. Phys. 90, 1007 (1989).
HYDROGEN     (4s,1p) -> [2s,1p]
Options
OrbitalEnergies
EndOptions
          1.   1
* S-type functions
    4    2
      13.01000000
       1.96200000
       0.44460000
       0.12200000
  0.01968500  0.00000000
  0.13797700  0.00000000
  0.47814800  0.00000000
  0.50124000  1.00000000
 1
 -0.50
* P-type functions
    1    1
       0.72700000
  1.00000000
 0
/He.cc-pVDZ.Dunning.4s1p.2s1p..
D.E. Woon and T.H. Dunning, Jr. J. Chem. Phys. 100, 2975 (1994).
HELIUM       (4s,1p) -> [2s,1p]
Options
OrbitalEnergies
EndOptions
          2.   1
* S-type functions
    4    2
      38.36000000
       5.77000000
       1.24000000
       0.29760000
  0.02380900  0.00000000
  0.15489100  0.00000000
  0.46998700  0.00000000
  0.51302700  1.00000000
 1
 -0.91795
* P-type functions
    1    1
       1.27500000
  1.00000000
 0
/Li.cc-pVDZ.Dunning.9s4p1d.3s2p1d..
T.H. Dunning, Jr. J. Chem. Phys. 90, 1007 (1989).
LITHIUM      (9s,4p,1d) -> [3s,2p,1d]
Options
OrbitalEnergies
EndOptions
          3.   2
* S-type functions
    9    3
    1469.00000000
     220.50000000
      50.26000000
      14.24000000
       4.58100000
       1.58000000
       0.56400000
       0.07345000
       0.02805000
  0.00076600 -0.00012000  0.00000000
  0.00589200 -0.00092300  0.00000000
  0.02967100 -0.00468900  0.00000000
  0.10918000 -0.01768200  0.00000000
  0.28278900 -0.04890200  0.00000000
  0.45312300 -0.09600900  0.00000000
  0.27477400 -0.13638000  0.00000000
  0.00975100  0.57510200  0.00000000
 -0.00318000  0.51766100  1.00000000
 2
 -2.47773  -0.19632
* P-type functions
    4    2
       1.53400000
       0.27490000
       0.07362000
       0.02403000
  0.02278400  0.00000000
  0.13910700  0.00000000
  0.50037500  0.00000000
  0.50847400  1.00000000
 0
* D-type functions
    1    1
       0.12390000
  1.00000000
 0
/Be.cc-pVDZ.Dunning.9s4p1d.3s2p1d..
T.H. Dunning, Jr. J. Chem. Phys. 90, 1007 (1989).
BERYLLIUM    (9s,4p,1d) -> [3s,2p,1d]
Options
OrbitalEnergies
EndOptions
          4.   2
* S-type functions
    9    3
    2940.00000000
     441.20000000
     100.50000000
      28.43000000
       9.16900000
       3.19600000
       1.15900000
       0.18110000
       0.05890000
  0.00068000 -0.00012300  0.00000000
  0.00523600 -0.00096600  0.00000000
  0.02660600 -0.00483100  0.00000000
  0.09999300 -0.01931400  0.00000000
  0.26970200 -0.05328000  0.00000000
  0.45146900 -0.12072300  0.00000000
  0.29507400 -0.13343500  0.00000000
  0.01258700  0.53076700  0.00000000
 -0.00375600  0.58011700  1.00000000
 2
 -4.73267  -0.30927
* P-type functions
    4    2
       3.61900000
       0.71100000
       0.19510000
       0.06018000
  0.02911100  0.00000000
  0.16936500  0.00000000
  0.51345800  0.00000000
  0.47933800  1.00000000
 0
* D-type functions
    1    1
       0.23800000
  1.00000000
 0
/B.cc-pVDZ.Dunning.9s4p1d.3s2p1d..
T.H. Dunning, Jr. J. Chem. Phys. 90, 1007 (1989).
BORON        (9s,4p,1d) -> [3s,2p,1d]
Options
OrbitalEnergies
EndOptions
          5.   2
* S-type functions
    9    3
    4570.00000000
     685.90000000
     156.50000000
      44.47000000
      14.48000000
       5.13100000
       1.89800000
       0.33290000
       0.10430000
  0.00069600 -0.00013900  0.00000000
  0.00535300 -0.00109700  0.00000000
  0.02713400 -0.00544400  0.00000000
  0.10138000 -0.02191600  0.00000000
  0.27205500 -0.05975100  0.00000000
  0.44840300 -0.13873200  0.00000000
  0.29012300 -0.13148200  0.00000000
  0.01432200  0.53952600  0.00000000
 -0.00348600  0.58077400  1.00000000
 2
 -7.69533  -0.49469
* P-type functions
    4    2
       6.00100000
       1.24100000
       0.33640000
       0.09538000
  0.03548100  0.00000000
  0.19807200  0.00000000
  0.50523000  0.00000000
  0.47949900  1.00000000
 1
 -0.30986
* D-type functions
    1    1
       0.34300000
  1.00000000
 0
/C.cc-pVDZ.Dunning.9s4p1d.3s2p1d..
T.H. Dunning, Jr. J. Chem. Phys. 90, 1007 (1989).
CARBON       (9s,4p,1d) -> [3s,2p,1d]
Options
OrbitalEnergies
EndOptions
          6.   2
* S-type functions
    9    3
    6665.00000000
    1000.00000000
     228.00000000
      64.71000000
      21.06000000
       7.49500000
       2.79700000
       0.52150000
       0.15960000
  0.00069200 -0.00014600  0.00000000
  0.00532900 -0.00115400  0.00000000
  0.02707700 -0.00572500  0.00000000
  0.10171800 -0.02331200  0.00000000
  0.27474000 -0.06395500  0.00000000
  0.44856400 -0.14998100  0.00000000
  0.28507400 -0.12726200  0.00000000
  0.01520400  0.54452900  0.00000000
 -0.00319100  0.58049600  1.00000000
 2
 -11.32554  -0.70563
* P-type functions
    4    2
       9.43900000
       2.00200000
       0.54560000
       0.15170000
  0.03810900  0.00000000
  0.20948000  0.00000000
  0.50855700  0.00000000
  0.46884200  1.00000000
 1
 -0.43335
* D-type functions
    1    1
       0.55000000
  1.00000000
 0
/N.cc-pVDZ.Dunning.9s4p1d.3s2p1d..
T.H. Dunning, Jr. J. Chem. Phys. 90, 1007 (1989).
NITROGEN     (9s,4p,1d) -> [3s,2p,1d]
Options
OrbitalEnergies
EndOptions
          7.   2
* S-type functions
    9    3
    9046.00000000
    1357.00000000
     309.30000000
      87.73000000
      28.56000000
      10.21000000
       3.83800000
       0.74660000
       0.22480000
  0.00070000 -0.00015300  0.00000000
  0.00538900 -0.00120800  0.00000000
  0.02740600 -0.00599200  0.00000000
  0.10320700 -0.02454400  0.00000000
  0.27872300 -0.06745900  0.00000000
  0.44854000 -0.15807800  0.00000000
  0.27823800 -0.12183100  0.00000000
  0.01544000  0.54900300  0.00000000
 -0.00286400  0.57881500  1.00000000
 2
 -15.62909  -0.94531
* P-type functions
    4    2
      13.55000000
       2.91700000
       0.79730000
       0.21850000
  0.03991900  0.00000000
  0.21716900  0.00000000
  0.51031900  0.00000000
  0.46221400  1.00000000
 1
 -0.56758
* D-type functions
    1    1
       0.81700000
  1.00000000
 0
/O.cc-pVDZ.Dunning.9s4p1d.3s2p1d..
T.H. Dunning, Jr. J. Chem. Phys. 90, 1007 (1989).
OXYGEN       (9s,4p,1d) -> [3s,2p,1d]
Options
OrbitalEnergies
EndOptions
          8.   2
* S-type functions
    9    3
   11720.00000000
    1759.00000000
     400.80000000
     113.70000000
      37.03000000
      13.27000000
       5.02500000
       1.01300000
       0.30230000
  0.00071000 -0.00016000  0.00000000
  0.00547000 -0.00126300  0.00000000
  0.02783700 -0.00626700  0.00000000
  0.10480000 -0.02571600  0.00000000
  0.28306200 -0.07092400  0.00000000
  0.44871900 -0.16541100  0.00000000
  0.27095200 -0.11695500  0.00000000
  0.01545800  0.55736800  0.00000000
 -0.00258500  0.57275900  1.00000000
 2
 -20.66866  -1.24433
* P-type functions
    4    2
      17.70000000
       3.85400000
       1.04600000
       0.27530000
  0.04301800  0.00000000
  0.22891300  0.00000000
  0.50872800  0.00000000
  0.46053100  1.00000000
 1
 -0.63192
* D-type functions
    1    1
       1.18500000
  1.00000000
 0
/F.cc-pVDZ.Dunning.9s4p1d.3s2p1d..
T.H. Dunning, Jr. J. Chem. Phys. 90, 1007 (1989).
FLUORINE     (9s,4p,1d) -> [3s,2p,1d]
Options
OrbitalEnergies
EndOptions
          9.   2
* S-type functions
    9    3
   14710.00000000
    2207.00000000
     502.80000000
     142.60000000
      46.47000000
      16.70000000
       6.35600000
       1.31600000
       0.38970000
  0.00072100 -0.00016500  0.00000000
  0.00555300 -0.00130800  0.00000000
  0.02826700 -0.00649500  0.00000000
  0.10644400 -0.02669100  0.00000000
  0.28681400 -0.07369000  0.00000000
  0.44864100 -0.17077600  0.00000000
  0.26476100 -0.11232700  0.00000000
  0.01533300  0.56281400  0.00000000
 -0.00233200  0.56877800  1.00000000
 2
 -26.38273  -1.57254
* P-type functions
    4    2
      22.67000000
       4.97700000
       1.34700000
       0.34710000
  0.04487800  0.00000000
  0.23571800  0.00000000
  0.50852100  0.00000000
  0.45812000  1.00000000
 1
 -0.73001
* D-type functions
    1    1
       1.64000000
  1.00000000
 0
/Ne.cc-pVDZ.Dunning.9s4p1d.3s2p1d..
T.H. Dunning, Jr. J. Chem. Phys. 90, 1007 (1989).
NEON         (9s,4p,1d) -> [3s,2p,1d]
Options
OrbitalEnergies
EndOptions
         10.   2
* S-type functions
    9    3
   17880.00000000
    2683.00000000
     611.50000000
     173.50000000
      56.64000000
      20.42000000
       7.81000000
       1.65300000
       0.48690000
  0.00073800 -0.00017200  0.00000000
  0.00567700 -0.00135700  0.00000000
  0.02888300 -0.00673700  0.00000000
  0.10854000 -0.02766300  0.00000000
  0.29090700 -0.07620800  0.00000000
  0.44832400 -0.17522700  0.00000000
  0.25802600 -0.10703800  0.00000000
  0.01506300  0.56705000  0.00000000
 -0.00210000  0.56521600  1.00000000
 2
 -32.77248  -1.93043
* P-type functions
    4    2
      28.39000000
       6.27000000
       1.69500000
       0.43170000
  0.04608700  0.00000000
  0.24018100  0.00000000
  0.50874400  0.00000000
  0.45566000  1.00000000
 1
 -0.85044
* D-type functions
    1    1
       2.20200000
  1.00000000
 0
/Na.cc-pVDZ.Dunning.12s8p1d.4s3p1d..
D.E. Woon and T.H. Dunning, Jr.  (to be published)
SODIUM       (12s,8p,1d) -> [4s,3p,1d]
Options
OrbitalEnergies
EndOptions
         11.   2
* S-type functions
   12    4
   31700.00000000
    4755.00000000
    1082.00000000
     306.40000000
      99.53000000
      35.42000000
      13.30000000
       4.39200000
       1.67600000
       0.58890000
       0.05640000
       0.02307000
  0.00045888 -0.00011216  0.00001702  0.00000000
  0.00355070 -0.00086851  0.00013069  0.00000000
  0.01826180 -0.00451330  0.00068778  0.00000000
  0.07166500 -0.01814360  0.00272359  0.00000000
  0.21234600 -0.05807990  0.00895529  0.00000000
  0.41620300 -0.13765300  0.02078320  0.00000000
  0.37302000 -0.19390800  0.03193800  0.00000000
  0.06250540  0.08580090 -0.01913680  0.00000000
 -0.00624532  0.60441900 -0.10259500  0.00000000
  0.00243374  0.44171900 -0.19894500  0.00000000
 -0.00044238  0.01305470  0.65595200  0.00000000
  0.00024192 -0.00568085  0.43115300  1.00000000
 3
 -40.47850  -2.79702  -0.18210
* P-type functions
    8    3
     138.10000000
      32.24000000
       9.98500000
       3.48400000
       1.23100000
       0.41770000
       0.06513000
       0.02053000
  0.00579641 -0.00058153  0.00000000
  0.04157560 -0.00407306  0.00000000
  0.16287300 -0.01679370  0.00000000
  0.35940100 -0.03532680  0.00000000
  0.44998800 -0.05219710  0.00000000
  0.22750700 -0.01683590  0.00000000
  0.00808247  0.43461300  0.00000000
 -0.00196293  0.65821800  1.00000000
 1
 -1.51814
* D-type functions
    1    1
       0.09730000
  1.00000000
 0
/Mg.cc-pVDZ.Dunning.12s8p1d.4s3p1d..
D.E. Woon and T.H. Dunning, Jr.  (to be published)
MAGNESIUM    (12s,8p,1d) -> [4s,3p,1d]
Options
OrbitalEnergies
EndOptions
         12.   2
* S-type functions
   12    4
   47390.00000000
    7108.00000000
    1618.00000000
     458.40000000
     149.30000000
      53.59000000
      20.70000000
       8.38400000
       2.54200000
       0.87870000
       0.10770000
       0.03999000
  0.00034602 -0.00008778  0.00001696  0.00000000
  0.00268077 -0.00067473  0.00012987  0.00000000
  0.01383670 -0.00355603  0.00068883  0.00000000
  0.05517670 -0.01421540  0.00273533  0.00000000
  0.16966000 -0.04767480  0.00931224  0.00000000
  0.36470300 -0.11489200  0.02232650  0.00000000
  0.40685600 -0.20067600  0.04111950  0.00000000
  0.13508900 -0.03412240  0.00545642  0.00000000
  0.00490884  0.57045400 -0.13401200  0.00000000
  0.00028646  0.54230900 -0.25617600  0.00000000
  0.00002646  0.02181280  0.60585600  0.00000000
 -0.00001127 -0.00827700  0.50944600  1.00000000
 3
 -49.03160  -3.76760  -0.25300
* P-type functions
    8    3
     179.90000000
      42.14000000
      13.13000000
       4.62800000
       1.67000000
       0.58570000
       0.13110000
       0.04112000
  0.00538161 -0.00086595  0.00000000
  0.03924180 -0.00615978  0.00000000
  0.15744500 -0.02615190  0.00000000
  0.35853500 -0.05706470  0.00000000
  0.45722600 -0.08739060  0.00000000
  0.21591800 -0.01229900  0.00000000
  0.00664948  0.50208500  0.00000000
 -0.00012530  0.59724500  1.00000000
 1
 -2.28211
* D-type functions
    1    1
       0.18700000
  1.00000000
 0
/Al.cc-pVDZ.Dunning.12s8p1d.4s3p1d..
D.E. Woon and T.H. Dunning, Jr.  J. Chem. Phys. 98, 1358 (1993).
ALUMINUM     (12s,8p,1d) -> [4s,3p,1d]
Options
OrbitalEnergies
EndOptions
         13.   2
* S-type functions
   12    4
   64150.00000000
    9617.00000000
    2189.00000000
     620.50000000
     202.70000000
      73.15000000
      28.55000000
      11.77000000
       3.30000000
       1.17300000
       0.17520000
       0.06473000
  0.00029025 -0.00007580  0.00001751  0.00000000
  0.00225064 -0.00058179  0.00013421  0.00000000
  0.01164590 -0.00308113  0.00071244  0.00000000
  0.04673770 -0.01231120  0.00284330  0.00000000
  0.14629900 -0.04197810  0.00976842  0.00000000
  0.33028300 -0.10337100  0.02418500  0.00000000
  0.41586100 -0.19630800  0.04749930  0.00000000
  0.18925300 -0.08300020  0.02036210  0.00000000
  0.01158890  0.54104000 -0.15878800  0.00000000
 -0.00128385  0.57879600 -0.31169400  0.00000000
  0.00042588  0.02881470  0.62014700  0.00000000
 -0.00019928 -0.00953795  0.52094300  1.00000000
 3
 -58.50105  -4.91069  -0.39430
* P-type functions
    8    3
     258.80000000
      60.89000000
      19.14000000
       6.88100000
       2.57400000
       0.95720000
       0.20990000
       0.05986000
  0.00406847 -0.00074805  0.00000000
  0.03068150 -0.00545796  0.00000000
  0.12914900 -0.02453710  0.00000000
  0.32083100 -0.05821380  0.00000000
  0.45381500 -0.09837560  0.00000000
  0.27506600 -0.02600640  0.00000000
  0.01908070  0.46402000  0.00000000
 -0.00312848  0.64887000  1.00000000
 2
 -3.21834  -0.21002
* D-type functions
    1    1
       0.18900000
  1.00000000
 0
/Si.cc-pVDZ.Dunning.12s8p1d.4s3p1d..
D.E. Woon and T.H. Dunning, Jr.  J. Chem. Phys. 98, 1358 (1993).
SILICON      (12s,8p,1d) -> [4s,3p,1d]
Options
OrbitalEnergies
EndOptions
         14.   2
* S-type functions
   12    4
   78860.00000000
   11820.00000000
    2692.00000000
     763.40000000
     249.60000000
      90.28000000
      35.29000000
      14.51000000
       4.05300000
       1.48200000
       0.25170000
       0.09243000
  0.00027044 -0.00007232  0.00001851  0.00000000
  0.00209717 -0.00055512  0.00014224  0.00000000
  0.01085060 -0.00293805  0.00075219  0.00000000
  0.04367540 -0.01176870  0.00302279  0.00000000
  0.13765300 -0.04029070  0.01036770  0.00000000
  0.31664400 -0.10060900  0.02625630  0.00000000
  0.41858100 -0.19652800  0.05239890  0.00000000
  0.21021200 -0.10238200  0.02909590  0.00000000
  0.01449520  0.52719000 -0.17800300  0.00000000
 -0.00203590  0.59325100 -0.34687400  0.00000000
  0.00062419  0.03326520  0.62302000  0.00000000
 -0.00028287 -0.00973662  0.53771200  1.00000000
 3
 -68.81239  -6.15647  -0.53978
* P-type functions
    8    3
     315.90000000
      74.42000000
      23.48000000
       8.48800000
       3.21700000
       1.22900000
       0.29640000
       0.08768000
  0.00392656 -0.00085830  0.00000000
  0.02988110 -0.00630328  0.00000000
  0.12721200 -0.02882550  0.00000000
  0.32094300 -0.06945600  0.00000000
  0.45542900 -0.11949300  0.00000000
  0.26856300 -0.01995810  0.00000000
  0.01883360  0.51026800  0.00000000
 -0.00262431  0.60038200  1.00000000
 2
 -4.25598  -0.29703
* D-type functions
    1    1
       0.27500000
  1.00000000
 0
/P.cc-pVDZ.Dunning.12s8p1d.4s3p1d..
D.E. Woon and T.H. Dunning, Jr.  J. Chem. Phys. 98, 1358 (1993).
PHOSPHORUS   (12s,8p,1d) -> [4s,3p,1d]
Options
OrbitalEnergies
EndOptions
         15.   2
* S-type functions
   12    4
   94840.00000000
   14220.00000000
    3236.00000000
     917.10000000
     299.50000000
     108.10000000
      42.18000000
      17.28000000
       4.85800000
       1.81800000
       0.33720000
       0.12320000
  0.00025551 -0.00006969  0.00001912  0.00000000
  0.00198193 -0.00053527  0.00014722  0.00000000
  0.01027600 -0.00283709  0.00077791  0.00000000
  0.04148230 -0.01139830  0.00314546  0.00000000
  0.13198400 -0.03929290  0.01082000  0.00000000
  0.30866200 -0.09963640  0.02799570  0.00000000
  0.42064700 -0.19798300  0.05639780  0.00000000
  0.22287800 -0.11486000  0.03581900  0.00000000
  0.01640350  0.51859500 -0.19338700  0.00000000
 -0.00254255  0.60184700 -0.37209700  0.00000000
  0.00074805  0.03686120  0.62424600  0.00000000
 -0.00033096 -0.00970759  0.55172100  1.00000000
 3
 -79.96965  -7.51102  -0.69636
* P-type functions
    8    3
     370.50000000
      87.33000000
      27.59000000
      10.00000000
       3.82500000
       1.49400000
       0.39210000
       0.11860000
  0.00395005 -0.00095983  0.00000000
  0.03024920 -0.00711177  0.00000000
  0.12955400 -0.03271220  0.00000000
  0.32759400 -0.07957840  0.00000000
  0.45699200 -0.13501600  0.00000000
  0.25308600 -0.00910585  0.00000000
  0.01687980  0.53780200  0.00000000
 -0.00207093  0.56906600  1.00000000
 2
 -5.40088  -0.39161
* D-type functions
    1    1
       0.37300000
  1.00000000
 0
/S.cc-pVDZ.Dunning.12s8p1d.4s3p1d..
D.E. Woon and T.H. Dunning, Jr.  J. Chem. Phys. 98, 1358 (1993).
SULFUR       (12s,8p,1d) -> [4s,3p,1d]
Options
OrbitalEnergies
EndOptions
         16.   2
* S-type functions
   12    4
  110800.00000000
   16610.00000000
    3781.00000000
    1071.00000000
     349.80000000
     126.30000000
      49.26000000
      20.16000000
       5.72000000
       2.18200000
       0.43270000
       0.15700000
  0.00024764 -0.00006870  0.00001991  0.00000000
  0.00192026 -0.00052768  0.00015348  0.00000000
  0.00996192 -0.00279671  0.00080950  0.00000000
  0.04029750 -0.01126510  0.00328974  0.00000000
  0.12860400 -0.03888340  0.01129670  0.00000000
  0.30348000 -0.09950250  0.02963850  0.00000000
  0.42143200 -0.19974000  0.05998510  0.00000000
  0.23078100 -0.12336000  0.04132480  0.00000000
  0.01789710  0.51319400 -0.20747400  0.00000000
 -0.00297516  0.60712000 -0.39288900  0.00000000
  0.00084952  0.03967530  0.63284000  0.00000000
 -0.00036794 -0.00946864  0.55692400  1.00000000
 3
 -92.00447  -9.00431  -0.87955
* P-type functions
    8    3
     399.70000000
      94.19000000
      29.75000000
      10.77000000
       4.11900000
       1.62500000
       0.47260000
       0.14070000
  0.00447541 -0.00116251  0.00000000
  0.03417080 -0.00865664  0.00000000
  0.14425000 -0.03908860  0.00000000
  0.35392800 -0.09346250  0.00000000
  0.45908500 -0.14799400  0.00000000
  0.20638300  0.03019040  0.00000000
  0.01021410  0.56157300  0.00000000
 -0.00006031  0.53477600  1.00000000
 2
 -6.68253  -0.43737
* D-type functions
    1    1
       0.47900000
  1.00000000
 0
/Cl.cc-pVDZ.Dunning.12s8p1d.4s3p1d..
D.E. Woon and T.H. Dunning, Jr.  J. Chem. Phys. 98, 1358 (1993).
CHLORINE     (12s,8p,1d) -> [4s,3p,1d]
Options
OrbitalEnergies
EndOptions
         17.   2
* S-type functions
   12    4
  127900.00000000
   19170.00000000
    4363.00000000
    1236.00000000
     403.60000000
     145.70000000
      56.81000000
      23.23000000
       6.64400000
       2.57500000
       0.53710000
       0.19380000
  0.00024115 -0.00006789  0.00002050  0.00000000
  0.00187095 -0.00052184  0.00015830  0.00000000
  0.00970827 -0.00276513  0.00083364  0.00000000
  0.03931530 -0.01115370  0.00339880  0.00000000
  0.12593200 -0.03859190  0.01167380  0.00000000
  0.29934100 -0.09948480  0.03096220  0.00000000
  0.42188600 -0.20139200  0.06295330  0.00000000
  0.23720100 -0.13031300  0.04602570  0.00000000
  0.01915310  0.50944300 -0.21931200  0.00000000
 -0.00334792  0.61072500 -0.40877300  0.00000000
  0.00092988  0.04215490  0.63846500  0.00000000
 -0.00039638 -0.00923427  0.56236200  1.00000000
 3
 -104.88469 -10.60777  -1.07311
* P-type functions
    8    3
     417.60000000
      98.33000000
      31.04000000
      11.19000000
       4.24900000
       1.62400000
       0.53220000
       0.16200000
  0.00525982 -0.00143570  0.00000000
  0.03983320 -0.01077960  0.00000000
  0.16465500 -0.04700750  0.00000000
  0.38732200 -0.11103000  0.00000000
  0.45707200 -0.15327500  0.00000000
  0.15163600  0.08946090  0.00000000
  0.00181615  0.57944400  0.00000000
  0.00188296  0.48327200  1.00000000
 2
 -8.07252  -0.50652
* D-type functions
    1    1
       0.60000000
  1.00000000
 0
/Ar.cc-pVDZ.Dunning.12s8p1d.4s3p1d..
D.E. Woon and T.H. Dunning, Jr.  J. Chem. Phys. 98, 1358 (1993).
ARGON        (12s,8p,1d) -> [4s,3p,1d]
Options
OrbitalEnergies
EndOptions
         18.   2
* S-type functions
   12    4
  145700.00000000
   21840.00000000
    4972.00000000
    1408.00000000
     459.70000000
     165.90000000
      64.69000000
      26.44000000
       7.62800000
       2.99600000
       0.65040000
       0.23370000
  0.00023670 -0.00006749  0.00002105  0.00000000
  0.00183523 -0.00051852  0.00016257  0.00000000
  0.00952860 -0.00274825  0.00085546  0.00000000
  0.03862830 -0.01110070  0.00349745  0.00000000
  0.12408100 -0.03848200  0.01201560  0.00000000
  0.29647100 -0.09975990  0.03213680  0.00000000
  0.42206800 -0.20308800  0.06552790  0.00000000
  0.24171100 -0.13560800  0.04993700  0.00000000
  0.02005090  0.50719500 -0.22976900  0.00000000
 -0.00361000  0.61289800 -0.42100600  0.00000000
  0.00097561  0.04429680  0.64233100  0.00000000
 -0.00041132 -0.00899278  0.56754000  1.00000000
 3
 -118.61039 -12.32219  -1.27735
* P-type functions
    8    3
     453.70000000
     106.80000000
      33.73000000
      12.13000000
       4.59400000
       1.67800000
       0.59090000
       0.18520000
  0.00570555 -0.00160655  0.00000000
  0.04304600 -0.01217140  0.00000000
  0.17659100 -0.05207890  0.00000000
  0.40686300 -0.12373700  0.00000000
  0.45254900 -0.15161900  0.00000000
  0.12280100  0.14242500  0.00000000
 -0.00445996  0.58450100  0.00000000
  0.00205225  0.43754000  1.00000000
 2
 -9.57150  -0.59102
* D-type functions
    1    1
       0.73800000
  1.00000000
 0
/Ca.cc-pVDZ.Dunning.14s11p5d.5s4p2d..
J. Koput and K.A. Peterson. J. Phys. Chem. A 106, 9595 (2002).
CALCIUM      (14s,11p,5d) -> [5s,4p,2d]
         20.   2
* S-type functions
   14    5
   190000.7000000
    28481.4600000
     6482.7010000
     1835.8910000
      598.7243000
      215.8841000
       84.0124200
       34.2248800
       10.0249700
        4.0559200
        1.0202610
        0.4268650
        0.0633470
        0.0263010
  0.00022145 -0.00006453  0.00002223  0.00000531  0.0000000
  0.00171830 -0.00049662  0.00017170  0.00004111  0.0000000
  0.00892348 -0.00262826  0.00090452  0.00021568  0.0000000
  0.03630183 -0.01066845  0.00370343  0.00088827  0.0000000
  0.11762223 -0.03713509  0.01283750  0.00305813  0.0000000
  0.28604352 -0.09804284  0.03475459  0.00837608  0.0000000
  0.42260708 -0.20342692  0.07303491  0.01741056  0.0000000
  0.25774366 -0.15244655  0.06100083  0.01515453  0.0000000
  0.02391893  0.48279406 -0.24292928 -0.06207919  0.0000000
 -0.00495218  0.62923839 -0.48708500 -0.12611803  0.0000000
  0.00171779  0.06164842  0.56502804  0.17360694  0.0000000
 -0.00089209 -0.01479971  0.65574386  0.37822943  0.0000000
  0.00024510  0.00361089  0.02672894 -0.65964698  0.0000000
 -0.00012395 -0.00179273 -0.00999959 -0.49022159  1.0000000
* P-type functions
   11    4
     1072.0430000
      253.8439000
       81.3162600
       30.2418300
       12.1011000
        5.0225540
        1.9092200
        0.7713040
        0.3005700
        0.0766490
        0.0277720
  0.00198166 -0.00064891  0.00013595  0.00000000
  0.01612944 -0.00527907  0.00109420  0.00000000
  0.07657851 -0.02581131  0.00542680  0.00000000
  0.23269594 -0.08062892  0.01674718  0.00000000
  0.42445210 -0.15846552  0.03389863  0.00000000
  0.37326402 -0.12816816  0.02531183  0.00000000
  0.07868530  0.25610103 -0.05895713  0.00000000
 -0.00599927  0.58724068 -0.15876120  0.00000000
  0.00264257  0.30372561 -0.08554523  0.00000000
 -0.00085694  0.01416451  0.54464665  0.00000000
  0.00033147 -0.00115224  0.56631276  1.00000000
* D-type functions
    5    2
       10.3182000
        2.5924200
        0.7617000
        0.2083800
        0.0537000
  0.03284900  0.00000000
  0.14819200  0.00000000
  0.31092100  0.00000000
  0.45219500  0.00000000
  0.48086500  1.00000000
/Sc.cc-pVDZ.Dunning.20s16p8d2f.6s5p3d1f..
N.B. Balabanov and K.A. Peterson, J. Chem. Phys. 123, 064107 (2005).
SCANDIUM     (20s,16p,8d,2f) -> [6s,5p,3d,1f]
         21.   3
* S-type functions
   20    6
   2715278.000000
    406598.400000
     92530.040000
     26207.920000
      8549.429000
      3085.975000
      1203.172000
       498.486900
       216.736000
        97.874760
        45.204330
        20.211870
         9.574751
         4.540346
         1.995687
         0.942215
         0.417845
         0.095761
         0.051351
         0.023878
  8.147221E-06 -4.722109E-06  9.139905E-07 -2.201951E-07 -3.757238E-07  0.000000E+00
  6.334788E-05 -3.671829E-05  7.108513E-06 -1.711419E-06 -2.981907E-06  0.000000E+00
  3.330384E-04 -1.930883E-04  3.738126E-05 -9.008469E-06 -1.522586E-05  0.000000E+00
  1.404055E-03 -8.146870E-04  1.578828E-04 -3.799997E-05 -6.684686E-05  0.000000E+00
  5.081725E-03 -2.955526E-03  5.737686E-04 -1.383227E-04 -2.313129E-04  0.000000E+00
  1.626926E-02 -9.520035E-03  1.859244E-03 -4.473692E-04 -7.959729E-04  0.000000E+00
  4.624577E-02 -2.746858E-02  5.433182E-03 -1.310691E-03 -2.161961E-03  0.000000E+00
  1.137223E-01 -6.991528E-02  1.425387E-02 -3.429860E-03 -6.206459E-03  0.000000E+00
  2.257636E-01 -1.499251E-01  3.246144E-02 -7.847579E-03 -1.261905E-02  0.000000E+00
  3.106700E-01 -2.459153E-01  6.003454E-02 -1.447189E-02 -2.739459E-02  0.000000E+00
  2.191906E-01 -2.401293E-01  6.916105E-02 -1.690669E-02 -2.336516E-02  0.000000E+00
  7.215879E-02  3.567987E-02 -2.113084E-02  5.396115E-03 -5.734627E-03  0.000000E+00
  1.187030E-01  4.915023E-01 -2.666832E-01  6.671062E-02  1.536025E-01  0.000000E+00
  1.220532E-01  4.911381E-01 -4.367591E-01  1.178356E-01  1.447100E-01  0.000000E+00
  2.136795E-02  9.120633E-02  6.498243E-02 -2.738134E-02  9.359699E-02  0.000000E+00
 -5.357246E-04 -5.356723E-03  7.009599E-01 -2.260149E-01 -8.687730E-01  0.000000E+00
  2.435774E-04  8.812836E-04  4.515562E-01 -3.073539E-01  2.114597E-02  0.000000E+00
 -8.796617E-05 -7.605536E-04  3.011910E-02  2.544054E-01  2.275498E+00  0.000000E+00
  7.878246E-05  6.340116E-04 -1.329480E-02  5.981590E-01 -1.190770E+00  0.000000E+00
 -1.637155E-05 -1.556163E-04  4.633679E-03  3.115202E-01 -7.674257E-01  1.000000E+00
* P-type functions
   16    5
     10592.190000
      2507.533000
       814.457100
       311.519500
       131.961700
        59.987180
        28.662500
        14.108510
         7.103706
         3.609200
         1.776070
         0.854760
         0.402239
         0.154665
         0.064945
         0.026359
  4.500000E-05 -1.500000E-05 -4.000000E-06  4.000000E-06  0.000000E+00
  4.010000E-04 -1.310000E-04 -3.200000E-05  3.900000E-05  0.000000E+00
  2.302000E-03 -7.570000E-04 -1.850000E-04  2.210000E-04  0.000000E+00
  1.003700E-02 -3.318000E-03 -8.080000E-04  9.840000E-04  0.000000E+00
  3.495400E-02 -1.170600E-02 -2.870000E-03  3.423000E-03  0.000000E+00
  9.790900E-02 -3.360400E-02 -8.207000E-03  9.993000E-03  0.000000E+00
  2.106800E-01 -7.487900E-02 -1.847300E-02  2.191600E-02  0.000000E+00
  3.300930E-01 -1.225480E-01 -3.010100E-02  3.700800E-02  0.000000E+00
  3.310270E-01 -1.302760E-01 -3.294300E-02  3.779400E-02  0.000000E+00
  1.579600E-01  1.459600E-02  7.958000E-03 -4.379000E-03  0.000000E+00
  2.209900E-02  3.091840E-01  8.799300E-02 -1.101640E-01  0.000000E+00
 -1.605000E-03  4.629980E-01  1.523770E-01 -1.610170E-01  0.000000E+00
 -1.326000E-03  3.049570E-01  9.717000E-02 -1.824820E-01  0.000000E+00
 -2.800000E-04  5.087800E-02 -2.569380E-01  3.886110E-01  0.000000E+00
  3.400000E-05 -4.493000E-03 -5.878150E-01  6.911000E-01  0.000000E+00
 -1.300000E-05  1.832000E-03 -3.054210E-01  7.960400E-02  1.000000E+00
* D-type functions
    8    3
        50.513800
        14.740500
         5.195000
         2.028460
         0.804086
         0.307689
         0.111392
         0.037352
  4.266000E-03 -4.389000E-03  0.000000E+00
  2.770800E-02 -2.836300E-02  0.000000E+00
  1.000010E-01 -1.051370E-01  0.000000E+00
  2.315810E-01 -2.348540E-01  0.000000E+00
  3.460330E-01 -3.246090E-01  0.000000E+00
  3.733740E-01 -6.428900E-02  0.000000E+00
  2.642880E-01  6.017490E-01  0.000000E+00
  6.366700E-02  3.903000E-01  1.000000E+00
* F-type functions
    2    1
         0.712600
         0.163600
  3.617450E-01
  8.218680E-01
/Ti.cc-pVDZ.Dunning.20s16p8d2f.6s5p3d1f..
N.B. Balabanov and K.A. Peterson, J. Chem. Phys. 123, 064107 (2005).
TITANIUM     (20s,16p,8d,2f) -> [6s,5p,3d,1f]
         22.   3
* S-type functions
   20    6
   3014643.000000
    451432.900000
    102733.800000
     29098.170000
      9492.330000
      3426.346000
      1335.896000
       553.502600
       240.692500
       108.729300
        50.264570
        22.580040
        10.714320
         5.093546
         2.244183
         1.059570
         0.468849
         0.106143
         0.055262
         0.025465
  8.060782E-06 -4.630486E-06  9.230559E-07 -2.180323E-07 -3.975126E-07  0.000000E+00
  6.267518E-05 -3.600451E-05  7.178974E-06 -1.694860E-06 -3.161080E-06  0.000000E+00
  3.295006E-04 -1.893420E-04  3.775134E-05 -8.919208E-06 -1.609375E-05  0.000000E+00
  1.389203E-03 -7.988781E-04  1.594532E-04 -3.763633E-05 -7.092947E-05  0.000000E+00
  5.028469E-03 -2.898698E-03  5.795150E-04 -1.369575E-04 -2.442710E-04  0.000000E+00
  1.610419E-02 -9.339701E-03  1.878414E-03 -4.432894E-04 -8.457892E-04  0.000000E+00
  4.581232E-02 -2.697464E-02  5.492747E-03 -1.298868E-03 -2.282208E-03  0.000000E+00
  1.128613E-01 -6.878913E-02  1.443297E-02 -3.406752E-03 -6.619873E-03  0.000000E+00
  2.248193E-01 -1.481037E-01  3.296408E-02 -7.810829E-03 -1.335024E-02  0.000000E+00
  3.114571E-01 -2.445253E-01  6.125493E-02 -1.449245E-02 -2.955830E-02  0.000000E+00
  2.224995E-01 -2.419916E-01  7.134113E-02 -1.708136E-02 -2.477039E-02  0.000000E+00
  7.293128E-02  3.183790E-02 -1.973150E-02  4.897666E-03 -8.414624E-03  0.000000E+00
  1.160683E-01  4.932686E-01 -2.741869E-01  6.753108E-02  1.693855E-01  0.000000E+00
  1.194774E-01  4.939655E-01 -4.440977E-01  1.173318E-01  1.500787E-01  0.000000E+00
  2.097868E-02  9.196313E-02  7.776084E-02 -2.985025E-02  9.787777E-02  0.000000E+00
 -5.091715E-04 -5.316992E-03  7.068444E-01 -2.277634E-01 -9.653608E-01  0.000000E+00
  2.217859E-04  8.085624E-04  4.413892E-01 -2.928115E-01  1.489721E-01  0.000000E+00
 -7.636896E-05 -6.918459E-04  2.799769E-02  2.665300E-01  2.191179E+00  0.000000E+00
  7.719539E-05  6.086512E-04 -1.210790E-02  5.912406E-01 -1.243325E+00  0.000000E+00
 -1.149056E-05 -1.313842E-04  4.324762E-03  3.037229E-01 -6.711916E-01  1.000000E+00
* P-type functions
   16    5
     11912.030000
      2819.947000
       915.947900
       350.384200
       148.482500
        67.539440
        32.303320
        15.927860
         8.038035
         4.093916
         2.022390
         0.976102
         0.459595
         0.177152
         0.073517
         0.029401
  4.400000E-05 -1.500000E-05  4.000000E-06  4.000000E-06  0.000000E+00
  3.910000E-04 -1.310000E-04  3.100000E-05  3.900000E-05  0.000000E+00
  2.248000E-03 -7.550000E-04  1.820000E-04  2.230000E-04  0.000000E+00
  9.823000E-03 -3.319000E-03  7.950000E-04  9.920000E-04  0.000000E+00
  3.433800E-02 -1.175000E-02  2.833000E-03  3.476000E-03  0.000000E+00
  9.666600E-02 -3.392200E-02  8.154000E-03  1.017200E-02  0.000000E+00
  2.094170E-01 -7.616400E-02  1.847200E-02  2.257600E-02  0.000000E+00
  3.301890E-01 -1.257020E-01  3.040000E-02  3.823800E-02  0.000000E+00
  3.319360E-01 -1.330980E-01  3.304700E-02  3.933700E-02  0.000000E+00
  1.584880E-01  1.740600E-02 -8.251000E-03 -6.106000E-03  0.000000E+00
  2.231000E-02  3.151650E-01 -8.855400E-02 -1.129620E-01  0.000000E+00
 -1.566000E-03  4.618140E-01 -1.496120E-01 -1.681140E-01  0.000000E+00
 -1.324000E-03  2.998560E-01 -9.422700E-02 -1.659320E-01  0.000000E+00
 -2.710000E-04  5.000000E-02  2.508460E-01  3.914030E-01  0.000000E+00
  3.200000E-05 -4.230000E-03  5.866430E-01  6.818400E-01  0.000000E+00
 -1.200000E-05  1.725000E-03  3.135350E-01  8.403100E-02  1.000000E+00
* D-type functions
    8    3
        64.013000
        18.817900
         6.728700
         2.664130
         1.078680
         0.423209
         0.155999
         0.051884
  3.887000E-03 -3.970000E-03  0.000000E+00
  2.639900E-02 -2.687300E-02  0.000000E+00
  9.751100E-02 -1.022750E-01  0.000000E+00
  2.328480E-01 -2.377280E-01  0.000000E+00
  3.531520E-01 -3.121140E-01  0.000000E+00
  3.721860E-01 -4.237800E-02  0.000000E+00
  2.476720E-01  5.886580E-01  0.000000E+00
  5.823600E-02  4.103020E-01  1.000000E+00
* F-type functions
    2    1
         1.227400
         0.278800
  3.581580E-01
  8.257940E-01
/V.cc-pVDZ.Dunning.20s16p8d2f.6s5p3d1f..
N.B. Balabanov and K.A. Peterson, J. Chem. Phys. 123, 064107 (2005).
VANADIUM     (20s,16p,8d,2f) -> [6s,5p,3d,1f]
         23.   3
* S-type functions
   20    6
   3321857.000000
    497435.600000
    113202.700000
     32063.330000
     10459.620000
      3775.506000
      1472.040000
       609.933100
       265.263400
       119.860700
        55.448910
        24.983720
         11.88056
         5.660311
         2.495703
         1.177866
         0.520044
         0.115965
         0.058938
         0.026946
  8.039999E-06 -4.503003E-06  9.320648E-07 -2.158944E-07 -4.093416E-07  0.000000E+00
  6.251402E-05 -3.501295E-05  7.249306E-06 -1.678519E-06 -3.258956E-06  0.000000E+00
  3.286553E-04 -1.841339E-04  3.811967E-05 -8.831213E-06 -1.656390E-05  0.000000E+00
  1.385697E-03 -7.769216E-04  1.610238E-04 -3.727769E-05 -7.316689E-05  0.000000E+00
  5.016217E-03 -2.819505E-03  5.852210E-04 -1.356099E-04 -2.512784E-04  0.000000E+00
  1.606931E-02 -9.087486E-03  1.897502E-03 -4.392351E-04 -8.732657E-04  0.000000E+00
  4.574242E-02 -2.627134E-02  5.550909E-03 -1.286948E-03 -2.347654E-03  0.000000E+00
  1.128544E-01 -6.712726E-02  1.460584E-02 -3.382149E-03 -6.853150E-03  0.000000E+00
  2.254344E-01 -1.451130E-01  3.342974E-02 -7.765646E-03 -1.376420E-02  0.000000E+00
  3.140461E-01 -2.412483E-01  6.235722E-02 -1.447985E-02 -3.084679E-02  0.000000E+00
  2.267819E-01 -2.416314E-01  7.312435E-02 -1.715502E-02 -2.562208E-02  0.000000E+00
  7.334069E-02  3.067362E-02 -1.911472E-02  4.610101E-03 -1.005123E-02  0.000000E+00
  1.102474E-01  4.970415E-01 -2.817249E-01  6.827831E-02  1.795330E-01  0.000000E+00
  1.131358E-01  4.958875E-01 -4.488151E-01  1.161368E-01  1.522400E-01  0.000000E+00
  1.971295E-02  9.181868E-02  9.202696E-02 -3.277049E-02  9.483887E-02  0.000000E+00
 -4.719088E-04 -5.392514E-03  7.110117E-01 -2.280000E-01 -1.014876E+00  0.000000E+00
  1.861606E-04  7.102380E-04  4.309274E-01 -2.793991E-01  2.308810E-01  0.000000E+00
 -6.208598E-05 -6.363128E-04  2.604589E-02  2.771165E-01  2.113321E+00  0.000000E+00
  7.295314E-05  5.979932E-04 -1.101049E-02  5.852999E-01 -1.253048E+00  0.000000E+00
 -6.362062E-06 -1.100879E-04  4.106300E-03  2.963946E-01 -6.139502E-01  1.000000E+00
* P-type functions
   16    5
     13273.200000
      3142.126000
      1020.588000
       390.440700
       165.504300
        75.320060
        36.055030
        17.804360
         9.002929
         4.594544
         2.276760
         1.101178
         0.518638
         0.200565
         0.081291
         0.031795
  4.300000E-05 -1.500000E-05  4.000000E-06  4.000000E-06  0.000000E+00
  3.840000E-04 -1.310000E-04  3.200000E-05  3.900000E-05  0.000000E+00
  2.210000E-03 -7.550000E-04  1.830000E-04  2.230000E-04  0.000000E+00
  9.678000E-03 -3.325000E-03  8.020000E-04  9.960000E-04  0.000000E+00
  3.393600E-02 -1.181100E-02  2.862000E-03  3.498000E-03  0.000000E+00
  9.591700E-02 -3.425600E-02  8.287000E-03  1.029600E-02  0.000000E+00
  2.088530E-01 -7.736300E-02  1.887000E-02  2.296200E-02  0.000000E+00
  3.306600E-01 -1.284560E-01  3.130700E-02  3.920800E-02  0.000000E+00
  3.323120E-01 -1.350780E-01  3.366000E-02  3.994300E-02  0.000000E+00
  1.581880E-01  2.083800E-02 -9.479000E-03 -7.121000E-03  0.000000E+00
  2.225200E-02  3.204990E-01 -9.231300E-02 -1.162250E-01  0.000000E+00
 -1.565000E-03  4.602600E-01 -1.489890E-01 -1.694960E-01  0.000000E+00
 -1.353000E-03  2.953460E-01 -8.364400E-02 -1.553740E-01  0.000000E+00
 -2.650000E-04  4.904600E-02  2.493390E-01  3.950220E-01  0.000000E+00
  2.900000E-05 -3.824000E-03  5.805150E-01  6.789080E-01  0.000000E+00
 -1.100000E-05  1.585000E-03  3.223800E-01  8.312200E-02  1.000000E+00
* D-type functions
    8    3
        77.611500
        22.915900
         8.279540
         3.309930
         1.358630
         0.541350
         0.202356
         0.067568
  3.595000E-03 -3.818000E-03  0.000000E+00
  2.521000E-02 -2.671700E-02  0.000000E+00
  9.478600E-02 -1.036900E-01  0.000000E+00
  2.303630E-01 -2.476890E-01  0.000000E+00
  3.528940E-01 -3.115230E-01  0.000000E+00
  3.704140E-01 -2.282700E-02  0.000000E+00
  2.457180E-01  5.697260E-01  0.000000E+00
  6.099300E-02  4.194930E-01  1.000000E+00
* F-type functions
    2    1
         1.748800
         0.405700
  3.900680E-01
  8.008410E-01
/Cr.cc-pVDZ.Dunning.20s16p8d2f.6s5p3d1f..
N.B. Balabanov and K.A. Peterson, J. Chem. Phys. 123, 064107 (2005).
CHROMIUM     (20s,16p,8d,2f) -> [6s,5p,3d,1f]
         24.   3
* S-type functions
   20    6
   6177194.000000
    924929.500000
    210486.500000
     59620.050000
     19450.760000
      7022.056000
      2738.763000
      1135.814000
       495.092300
       224.748700
       105.383600
        50.193590
        22.249570
        10.982650
         5.383665
         2.343685
         1.105202
         0.487848
         0.089599
         0.033423
  4.128667E-06 -2.301772E-06  4.862957E-07 -1.102451E-07  2.179893E-07  0.000000E+00
  3.210767E-05 -1.789536E-05  3.776645E-06 -8.530233E-07  1.612940E-06  0.000000E+00
  1.688416E-04 -9.416174E-05  1.990664E-05 -4.520358E-06  9.111842E-06  0.000000E+00
  7.128520E-04 -3.975074E-04  8.389164E-05 -1.891612E-05  3.500645E-05  0.000000E+00
  2.589325E-03 -1.447025E-03  3.065706E-04 -6.974344E-05  1.435315E-04  0.000000E+00
  8.377350E-03 -4.694622E-03  9.944107E-04 -2.237867E-04  4.035896E-04  0.000000E+00
  2.441725E-02 -1.382387E-02  2.961959E-03 -6.754503E-04  1.425177E-03  0.000000E+00
  6.365135E-02 -3.674643E-02  7.969473E-03 -1.789346E-03  3.114009E-03  0.000000E+00
  1.427618E-01 -8.647185E-02  1.955017E-02 -4.477858E-03  9.814449E-03  0.000000E+00
  2.541275E-01 -1.696735E-01  4.085035E-02 -9.140144E-03  1.474698E-02  0.000000E+00
  3.009512E-01 -2.507089E-01  6.929003E-02 -1.610562E-02  3.911512E-02  0.000000E+00
  1.766513E-01 -1.961156E-01  6.146984E-02 -1.334870E-02  9.170888E-03  0.000000E+00
  6.936709E-02  1.457244E-01 -6.981302E-02  1.426027E-02  1.559878E-02  0.000000E+00
  1.179579E-01  5.466706E-01 -3.517597E-01  8.931690E-02 -2.816844E-01  0.000000E+00
  8.916187E-02  3.979434E-01 -3.828629E-01  8.885279E-02 -6.895261E-03  0.000000E+00
  1.103630E-02  5.277007E-02  2.676401E-01 -6.368776E-02 -1.769781E-01  0.000000E+00
 -3.546048E-04 -4.374537E-03  7.175950E-01 -2.783262E-01  1.443061E+00  0.000000E+00
  1.057311E-04  3.204035E-04  3.020814E-01 -1.830071E-01 -1.029318E+00  0.000000E+00
  1.114640E-05 -5.142077E-05  7.749514E-03  6.790937E-01 -1.307667E+00  0.000000E+00
  2.661387E-05  1.584134E-04  2.696096E-04  4.672953E-01  1.503842E+00  1.000000E+00
* P-type functions
   16    5
     14454.200000
      3421.676000
      1111.387000
       425.191800
       180.262300
        82.061170
        39.297260
        19.419590
         9.828899
         5.016810
         2.487091
         1.198780
         0.558695
         0.208924
         0.084608
         0.033258
  4.400000E-05 -1.500000E-05  4.000000E-06  4.000000E-06  0.000000E+00
  3.890000E-04 -1.350000E-04  3.200000E-05  4.000000E-05  0.000000E+00
  2.241000E-03 -7.770000E-04  1.850000E-04  2.290000E-04  0.000000E+00
  9.821000E-03 -3.427000E-03  8.100000E-04  1.019000E-03  0.000000E+00
  3.447100E-02 -1.218900E-02  2.906000E-03  3.602000E-03  0.000000E+00
  9.746000E-02 -3.538800E-02  8.391000E-03  1.055000E-02  0.000000E+00
  2.119850E-01 -7.991500E-02  1.919300E-02  2.370200E-02  0.000000E+00
  3.339900E-01 -1.323350E-01  3.156400E-02  3.998800E-02  0.000000E+00
  3.301370E-01 -1.354010E-01  3.341700E-02  4.043700E-02  0.000000E+00
  1.522270E-01  3.200800E-02 -1.290700E-02 -1.207400E-02  0.000000E+00
  2.042500E-02  3.338490E-01 -9.365900E-02 -1.189390E-01  0.000000E+00
 -1.360000E-03  4.617730E-01 -1.499770E-01 -1.781000E-01  0.000000E+00
 -1.195000E-03  2.812900E-01 -6.723400E-02 -1.238650E-01  0.000000E+00
 -1.970000E-04  4.184300E-02  2.707590E-01  4.297220E-01  0.000000E+00
  2.300000E-05 -4.002000E-03  5.758070E-01  6.507860E-01  0.000000E+00
 -9.000000E-06  1.521000E-03  3.011210E-01  6.417100E-02  1.000000E+00
* D-type functions
    8    3
        88.576800
        26.204500
         9.517470
         3.822480
         1.575120
         0.628928
         0.234424
         0.076815
  3.621000E-03 -4.122000E-03  0.000000E+00
  2.576600E-02 -2.930700E-02  0.000000E+00
  9.755600E-02 -1.150620E-01  0.000000E+00
  2.363120E-01 -2.730680E-01  0.000000E+00
  3.582860E-01 -3.144230E-01  0.000000E+00
  3.685430E-01  4.209700E-02  0.000000E+00
  2.354940E-01  5.914030E-01  0.000000E+00
  5.315600E-02  3.582150E-01  1.000000E+00
* F-type functions
    2    1
         2.221100
         0.523100
  4.235450E-01
  7.741140E-01
/Mn.cc-pVDZ.Dunning.20s16p8d2f.6s5p3d1f..
N.B. Balabanov and K.A. Peterson, J. Chem. Phys. 123, 064107 (2005).
MANGANESE    (20s,16p,8d,2f) -> [6s,5p,3d,1f]
         25.   3
* S-type functions
   20    6
   3960805.000000
    593115.500000
    134976.800000
     38230.670000
     12471.540000
      4501.743000
      1755.212000
       727.303900
       316.367800
       143.009800
        66.218050
        29.918960
        14.303180
         6.839451
         3.012374
         1.418808
         0.623624
         0.134098
         0.065548
         0.029584
  8.242127E-06 -3.936095E-06  9.462709E-07 -2.095391E-07 -4.121231E-07  0.000000E+00
  6.408587E-05 -3.060481E-05  7.360584E-06 -1.629439E-06 -3.282099E-06  0.000000E+00
  3.369253E-04 -1.609626E-04  3.869935E-05 -8.570592E-06 -1.667433E-05  0.000000E+00
  1.420648E-03 -6.792348E-04  1.635110E-04 -3.619272E-05 -7.369999E-05  0.000000E+00
  5.143683E-03 -2.466182E-03  5.941775E-04 -1.316146E-04 -2.529495E-04  0.000000E+00
  1.648569E-02 -7.957629E-03  1.927737E-03 -4.266810E-04 -8.801425E-04  0.000000E+00
  4.698560E-02 -2.307248E-02  5.641731E-03 -1.250270E-03 -2.365482E-03  0.000000E+00
  1.162437E-01 -5.932956E-02  1.487848E-02 -3.294665E-03 -6.926354E-03  0.000000E+00
  2.335277E-01 -1.299451E-01  3.414783E-02 -7.581860E-03 -1.393851E-02  0.000000E+00
  3.292837E-01 -2.212352E-01  6.405794E-02 -1.422864E-02 -3.143840E-02  0.000000E+00
  2.440304E-01 -2.292550E-01  7.557659E-02 -1.693796E-02 -2.625749E-02  0.000000E+00
  7.219806E-02  3.580733E-02 -1.946070E-02  4.454298E-03 -1.048313E-02  0.000000E+00
  7.687806E-02  5.107602E-01 -2.957874E-01  6.867042E-02  1.856472E-01  0.000000E+00
  7.852235E-02  5.008307E-01 -4.521170E-01  1.113335E-01  1.524839E-01  0.000000E+00
  1.294109E-02  9.011830E-02  1.224531E-01 -3.900820E-02  7.411368E-02  0.000000E+00
 -3.784873E-04 -6.909909E-03  7.169756E-01 -2.215755E-01 -1.018097E+00  0.000000E+00
 -2.503203E-05 -1.912925E-04  4.092712E-01 -2.544359E-01  2.980372E-01  0.000000E+00
 -2.421517E-05 -6.032312E-04  2.221969E-02  2.865866E-01  1.971989E+00  0.000000E+00
  3.462071E-05  5.621608E-04 -9.011202E-03  5.755741E-01 -1.179253E+00  0.000000E+00
  4.261482E-07 -1.021109E-04  3.691727E-03  2.898778E-01 -5.837703E-01  1.000000E+00
* P-type functions
   16    5
     16205.860000
      3836.274000
      1246.048000
       476.753500
       202.189500
        92.094870
        44.147200
        21.854680
        11.085960
         5.674108
         2.823170
         1.368621
         0.644431
         0.248382
         0.097255
         0.036633
  4.200000E-05 -1.500000E-05  3.000000E-06  4.000000E-06  0.000000E+00
  3.730000E-04 -1.290000E-04  3.000000E-05  4.000000E-05  0.000000E+00
  2.149000E-03 -7.480000E-04  1.720000E-04  2.260000E-04  0.000000E+00
  9.445000E-03 -3.308000E-03  7.620000E-04  1.013000E-03  0.000000E+00
  3.329700E-02 -1.181100E-02  2.726000E-03  3.575000E-03  0.000000E+00
  9.475900E-02 -3.453300E-02  7.976000E-03  1.061200E-02  0.000000E+00
  2.081440E-01 -7.878500E-02  1.828700E-02  2.390200E-02  0.000000E+00
  3.318050E-01 -1.321830E-01  3.077600E-02  4.127900E-02  0.000000E+00
  3.331750E-01 -1.371950E-01  3.237300E-02  4.147500E-02  0.000000E+00
  1.576010E-01  2.707500E-02 -9.978000E-03 -9.458000E-03  0.000000E+00
  2.144500E-02  3.288910E-01 -9.052900E-02 -1.236950E-01  0.000000E+00
 -2.558000E-03  4.572800E-01 -1.380040E-01 -1.743920E-01  0.000000E+00
 -2.027000E-03  2.889080E-01 -7.796500E-02 -1.291700E-01  0.000000E+00
 -3.600000E-04  4.743300E-02  2.295600E-01  4.003480E-01  0.000000E+00
  3.400000E-05 -3.522000E-03  5.761220E-01  6.696460E-01  0.000000E+00
 -1.300000E-05  1.456000E-03  3.485380E-01  8.273200E-02  1.000000E+00
* D-type functions
    8    3
       100.663000
        29.833600
        10.889400
         4.393580
         1.817820
         0.727827
         0.271295
         0.088309
  3.579000E-03 -3.454000E-03  0.000000E+00
  2.582700E-02 -2.492500E-02  0.000000E+00
  9.855900E-02 -9.763500E-02  0.000000E+00
  2.383270E-01 -2.366920E-01  0.000000E+00
  3.587070E-01 -2.923500E-01  0.000000E+00
  3.650920E-01 -4.973000E-03  0.000000E+00
  2.337380E-01  5.065880E-01  0.000000E+00
  5.661800E-02  4.979510E-01  1.000000E+00
* F-type functions
    2    1
         2.703200
         0.643800
  4.267760E-01
  7.697990E-01
/Fe.cc-pVDZ.Dunning.20s16p8d2f.6s5p3d1f..
N.B. Balabanov and K.A. Peterson, J. Chem. Phys. 123, 064107 (2005).
IRON         (20s,16p,8d,2f) -> [6s,5p,3d,1f]
         26.   3
* S-type functions
   20    6
   4316265.000000
    646342.400000
    147089.700000
     41661.520000
     13590.770000
      4905.750000
      1912.746000
       792.604300
       344.806500
       155.899900
        72.230910
        32.725060
        15.667620
         7.503483
         3.312223
         1.558471
         0.683914
         0.146757
         0.070583
         0.031449
  8.048803E-06 -4.155954E-06  9.532178E-07 -2.063008E-07 -4.009367E-07  0.000000E+00
  6.258306E-05 -3.231401E-05  7.414605E-06 -1.604169E-06 -3.189255E-06  0.000000E+00
  3.290239E-04 -1.699525E-04  3.898393E-05 -8.438437E-06 -1.623079E-05  0.000000E+00
  1.387355E-03 -7.171369E-04  1.647152E-04 -3.563151E-05 -7.157920E-05  0.000000E+00
  5.023256E-03 -2.603625E-03  5.985980E-04 -1.295998E-04 -2.463958E-04  0.000000E+00
  1.610140E-02 -8.399109E-03  1.942390E-03 -4.201534E-04 -8.544907E-04  0.000000E+00
  4.590034E-02 -2.434109E-02  5.687237E-03 -1.231954E-03 -2.307593E-03  0.000000E+00
  1.136154E-01 -6.251948E-02  1.501329E-02 -3.248922E-03 -6.728292E-03  0.000000E+00
  2.283869E-01 -1.365929E-01  3.452455E-02 -7.493717E-03 -1.366165E-02  0.000000E+00
  3.221159E-01 -2.312707E-01  6.495820E-02 -1.410102E-02 -3.062240E-02  0.000000E+00
  2.383661E-01 -2.383734E-01  7.716194E-02 -1.691600E-02 -2.631137E-02  0.000000E+00
  7.404667E-02  3.123837E-02 -1.873411E-02  4.218996E-03 -9.760183E-03  0.000000E+00
  9.214197E-02  5.086818E-01 -3.009185E-01  6.833810E-02  1.801906E-01  0.000000E+00
  9.339790E-02  4.987695E-01 -4.554661E-01  1.098201E-01  1.529634E-01  0.000000E+00
  1.573965E-02  9.033552E-02  1.286463E-01 -4.009005E-02  5.505413E-02  0.000000E+00
 -4.186682E-04 -6.005337E-03  7.183316E-01 -2.174739E-01 -9.551364E-01  0.000000E+00
  5.376318E-05  2.312454E-04  4.051743E-01 -2.465135E-01  2.586813E-01  0.000000E+00
 -3.816654E-05 -5.643680E-04  2.168227E-02  2.731435E-01  1.834049E+00  0.000000E+00
  4.319603E-05  4.992260E-04 -8.343566E-03  5.748321E-01 -9.333240E-01  0.000000E+00
 -3.401019E-06 -1.015293E-04  3.658979E-03  3.012713E-01 -6.981605E-01  1.000000E+00
* P-type functions
   16    5
     17745.690000
      4200.721000
      1364.429000
       522.080600
       221.459500
       100.909600
        48.401150
        23.985360
        12.182500
         6.242298
         3.110944
         1.509958
         0.710845
         0.273190
         0.104233
         0.038291
  4.100000E-05 -1.500000E-05  3.000000E-06  5.000000E-06  0.000000E+00
  3.690000E-04 -1.300000E-04  2.900000E-05  4.200000E-05  0.000000E+00
  2.129000E-03 -7.510000E-04  1.650000E-04  2.410000E-04  0.000000E+00
  9.369000E-03 -3.329000E-03  7.340000E-04  1.085000E-03  0.000000E+00
  3.309700E-02 -1.191200E-02  2.626000E-03  3.831000E-03  0.000000E+00
  9.443100E-02 -3.493300E-02  7.725000E-03  1.142300E-02  0.000000E+00
  2.080770E-01 -7.998900E-02  1.773300E-02  2.579200E-02  0.000000E+00
  3.323330E-01 -1.346360E-01  3.005500E-02  4.481800E-02  0.000000E+00
  3.329870E-01 -1.385980E-01  3.109400E-02  4.459800E-02  0.000000E+00
  1.568430E-01  3.027800E-02 -1.004800E-02 -1.117700E-02  0.000000E+00
  2.154900E-02  3.332160E-01 -8.830600E-02 -1.381340E-01  0.000000E+00
 -2.095000E-03  4.561530E-01 -1.298240E-01 -1.882850E-01  0.000000E+00
 -1.739000E-03  2.850510E-01 -7.693700E-02 -1.073990E-01  0.000000E+00
 -3.000000E-04  4.614400E-02  2.126610E-01  4.448630E-01  0.000000E+00
  2.900000E-05 -3.249000E-03  5.730610E-01  6.402390E-01  0.000000E+00
 -1.100000E-05  1.357000E-03  3.696510E-01  6.445700E-02  1.000000E+00
* D-type functions
    8    3
       113.344000
        33.641400
        12.331000
         4.994780
         2.072800
         0.830753
         0.309178
         0.100130
  3.530000E-03 -3.890000E-03  0.000000E+00
  2.578400E-02 -2.844200E-02  0.000000E+00
  9.911900E-02 -1.124290E-01  0.000000E+00
  2.390730E-01 -2.742570E-01  0.000000E+00
  3.571990E-01 -3.155460E-01  0.000000E+00
  3.621880E-01  5.710900E-02  0.000000E+00
  2.364610E-01  5.636040E-01  0.000000E+00
  6.011800E-02  3.846370E-01  1.000000E+00
* F-type functions
    2    1
         3.224300
         0.775800
  4.222490E-01
  7.714680E-01
/Co.cc-pVDZ.Dunning.20s16p8d2f.6s5p3d1f..
N.B. Balabanov and K.A. Peterson, J. Chem. Phys. 123, 064107 (2005).
COBALT       (20s,16p,8d,2f) -> [6s,5p,3d,1f]
         27.   3
* S-type functions
   20    6
   4675675.000000
    700161.500000
    159337.300000
     45130.460000
     14722.380000
      5314.222000
      2072.018000
       858.618800
       373.549700
       168.922900
        78.296390
        35.521230
        17.041440
         8.173000
         3.610318
         1.697047
         0.743532
         0.158344
         0.075036
         0.033091
  7.979026E-06 -4.200240E-06  9.592692E-07 -2.028840E-07 -3.863053E-07  0.000000E+00
  6.204071E-05 -3.265831E-05  7.461851E-06 -1.577580E-06 -3.068788E-06  0.000000E+00
  3.261735E-04 -1.717644E-04  3.923137E-05 -8.298813E-06 -1.564826E-05  0.000000E+00
  1.375360E-03 -7.247853E-04  1.657706E-04 -3.504154E-05 -6.883588E-05  0.000000E+00
  4.979997E-03 -2.631462E-03  6.024335E-04 -1.274655E-04 -2.377367E-04  0.000000E+00
  1.596434E-02 -8.489272E-03  1.955217E-03 -4.132695E-04 -8.213173E-04  0.000000E+00
  4.552086E-02 -2.460619E-02  5.726326E-03 -1.212261E-03 -2.229630E-03  0.000000E+00
  1.127385E-01 -6.322059E-02  1.512984E-02 -3.199318E-03 -6.467841E-03  0.000000E+00
  2.268262E-01 -1.381957E-01  3.483973E-02 -7.390972E-03 -1.325463E-02  0.000000E+00
  3.203074E-01 -2.340680E-01  6.570351E-02 -1.393649E-02 -2.946686E-02  0.000000E+00
  2.374021E-01 -2.415002E-01  7.831503E-02 -1.678575E-02 -2.599066E-02  0.000000E+00
  7.477686E-02  3.035312E-02 -1.877037E-02  4.149856E-03 -8.499807E-03  0.000000E+00
  9.581872E-02  5.101341E-01 -3.062663E-01  6.797646E-02  1.727316E-01  0.000000E+00
  9.649911E-02  4.974939E-01 -4.566429E-01  1.075807E-01  1.512189E-01  0.000000E+00
  1.623362E-02  8.970746E-02  1.378169E-01 -4.166022E-02  3.554509E-02  0.000000E+00
 -4.535497E-04 -5.941034E-03  7.193676E-01 -2.128044E-01 -8.829353E-01  0.000000E+00
  5.113519E-05  2.175362E-04  3.992579E-01 -2.381360E-01  2.143530E-01  0.000000E+00
 -4.174508E-05 -5.480155E-04  2.079933E-02  2.650788E-01  1.711865E+00  0.000000E+00
  4.027577E-05  4.525804E-04 -7.820663E-03  5.722774E-01 -7.140037E-01  0.000000E+00
 -5.789067E-06 -1.066748E-04  3.533911E-03  3.091556E-01 -8.027727E-01  1.000000E+00
* P-type functions
    16    5
     19267.780000
      4560.986000
      1481.436000
       566.867100
       240.491000
       109.610500
        52.594910
        26.083610
        13.261430
         6.799778
         3.393414
         1.648766
         0.776282
         0.298003
         0.113618
         0.041624
  4.100000E-05 -1.500000E-05 -3.000000E-06  5.000000E-06  0.000000E+00
  3.690000E-04 -1.310000E-04 -2.900000E-05  4.500000E-05  0.000000E+00
  2.128000E-03 -7.580000E-04 -1.670000E-04  2.550000E-04  0.000000E+00
  9.372000E-03 -3.363000E-03 -7.420000E-04  1.144000E-03  0.000000E+00
  3.315500E-02 -1.205400E-02 -2.662000E-03  4.061000E-03  0.000000E+00
  9.475200E-02 -3.542400E-02 -7.841000E-03  1.209500E-02  0.000000E+00
  2.090930E-01 -8.128700E-02 -1.805100E-02  2.747600E-02  0.000000E+00
  3.337220E-01 -1.369080E-01 -3.058000E-02  4.755700E-02  0.000000E+00
  3.322080E-01 -1.390190E-01 -3.131200E-02  4.730200E-02  0.000000E+00
  1.546130E-01  3.546800E-02  1.131100E-02 -1.441800E-02  0.000000E+00
  2.090200E-02  3.384980E-01  8.999000E-02 -1.500620E-01  0.000000E+00
 -2.024000E-03  4.544330E-01  1.307330E-01 -1.990920E-01  0.000000E+00
 -1.697000E-03  2.797930E-01  7.180800E-02 -7.978300E-02  0.000000E+00
 -2.800000E-04  4.477600E-02 -2.216580E-01  4.590350E-01  0.000000E+00
  2.600000E-05 -3.151000E-03 -5.710250E-01  6.174950E-01  0.000000E+00
 -1.000000E-05  1.317000E-03 -3.637890E-01  6.469000E-02  1.000000E+00
* D-type functions
    8    3
       126.264000
        37.522600
        13.802100
         5.609270
         2.333690
         0.936415
         0.348237
         0.112353
  3.510000E-03 -4.067000E-03  0.000000E+00
  2.588400E-02 -3.005300E-02  0.000000E+00
  1.000580E-01 -1.196200E-01  0.000000E+00
  2.405470E-01 -2.915130E-01  0.000000E+00
  3.568430E-01 -3.180480E-01  0.000000E+00
  3.595790E-01  9.169800E-02  0.000000E+00
  2.366290E-01  5.608230E-01  0.000000E+00
  6.212900E-02  3.586780E-01  1.000000E+00
* F-type functions
    2    1
         3.772400
         0.917000
  4.239660E-01
  7.684290E-01
/Ni.cc-pVDZ.Dunning.20s16p8d2f.6s5p3d1f..
N.B. Balabanov and K.A. Peterson, J. Chem. Phys. 123, 064107 (2005).
NICKEL       (20s,16p,8d,2f) -> [6s,5p,3d,1f]
         28.   3
* S-type functions
   20    6
   5045991.000000
    755614.200000
    171956.800000
     48704.790000
     15888.410000
      5735.123000
      2236.137000
       926.646800
       403.174300
       182.347600
        84.548850
        38.396340
        18.458590
         8.863548
         3.916227
         1.838870
         0.804362
         0.169797
         0.079306
         0.034677
  8.208996E-06 -3.657849E-06  9.594149E-07 -2.013753E-07 -3.924245E-07  0.000000E+00
  6.382884E-05 -2.844094E-05  7.462614E-06 -1.565832E-06 -3.113909E-06  0.000000E+00
  3.355800E-04 -1.495928E-04  3.923843E-05 -8.237182E-06 -1.590447E-05  0.000000E+00
  1.415075E-03 -6.313009E-04  1.657868E-04 -3.478105E-05 -6.981394E-05  0.000000E+00
  5.124444E-03 -2.293052E-03  6.025905E-04 -1.265265E-04 -2.417848E-04  0.000000E+00
  1.643256E-02 -7.405123E-03  1.955662E-03 -4.102589E-04 -8.326195E-04  0.000000E+00
  4.689398E-02 -2.152032E-02  5.730391E-03 -1.203834E-03 -2.270294E-03  0.000000E+00
  1.163534E-01 -5.560974E-02  1.514756E-02 -3.179062E-03 -6.557427E-03  0.000000E+00
  2.350511E-01 -1.230176E-01  3.493499E-02 -7.353828E-03 -1.354288E-02  0.000000E+00
  3.350184E-01 -2.130104E-01  6.598072E-02 -1.389022E-02 -2.989768E-02  0.000000E+00
  2.534779E-01 -2.265837E-01  7.893083E-02 -1.677875E-02 -2.693106E-02  0.000000E+00
  7.300901E-02  3.546796E-02 -1.906249E-02  4.163378E-03 -7.827693E-03  0.000000E+00
  6.184244E-02  5.181697E-01 -3.095921E-01  6.814703E-02  1.741667E-01  0.000000E+00
  6.302956E-02  5.025630E-01 -4.558610E-01  1.061029E-01  1.595468E-01  0.000000E+00
  1.008063E-02  8.955674E-02  1.482931E-01 -4.339980E-02  1.995550E-02  0.000000E+00
 -2.244528E-04 -7.031311E-03  7.134039E-01 -2.094950E-01 -8.897000E-01  0.000000E+00
 -5.932767E-05 -4.339167E-04  3.976063E-01 -2.310271E-01  2.486892E-01  0.000000E+00
 -1.158562E-05 -5.831711E-04  2.295523E-02  2.590532E-01  1.613012E+00  0.000000E+00
  8.115109E-06  4.228788E-04 -9.151758E-03  5.691426E-01 -5.990277E-01  0.000000E+00
 -1.681699E-06 -1.266714E-04  3.875414E-03  3.158125E-01 -8.369078E-01  1.000000E+00
* P-type functions
   16    5
     21027.920000
      4977.560000
      1616.740000
       618.671800
       262.518300
       119.690700
        57.465850
        28.528290
        14.521480
         7.453850
         3.723553
         1.809813
         0.851336
         0.324814
         0.119522
         0.042366
  4.100000E-05 -1.500000E-05  3.000000E-06  6.000000E-06  0.000000E+00
  3.630000E-04 -1.290000E-04  2.600000E-05  5.300000E-05  0.000000E+00
  2.097000E-03 -7.490000E-04  1.520000E-04  3.050000E-04  0.000000E+00
  9.250000E-03 -3.328000E-03  6.780000E-04  1.364000E-03  0.000000E+00
  3.279600E-02 -1.194700E-02  2.427000E-03  4.876000E-03  0.000000E+00
  9.400400E-02 -3.524200E-02  7.201000E-03  1.450300E-02  0.000000E+00
  2.082800E-01 -8.120400E-02  1.657800E-02  3.329600E-02  0.000000E+00
  3.336540E-01 -1.374930E-01  2.839200E-02  5.748200E-02  0.000000E+00
  3.329040E-01 -1.392260E-01  2.859900E-02  5.870200E-02  0.000000E+00
  1.553720E-01  3.601600E-02 -1.013200E-02 -1.990400E-02  0.000000E+00
  2.085900E-02  3.391280E-01 -8.291200E-02 -1.946950E-01  0.000000E+00
 -2.440000E-03  4.504720E-01 -1.159980E-01 -2.396130E-01  0.000000E+00
 -1.998000E-03  2.817830E-01 -7.279500E-02 -2.232000E-03  0.000000E+00
 -3.380000E-04  4.789800E-02  1.956400E-01  5.214350E-01  0.000000E+00
  3.500000E-05 -2.987000E-03  5.670990E-01  5.455400E-01  0.000000E+00
 -1.200000E-05  1.309000E-03  3.952700E-01  4.362200E-02  1.000000E+00
* D-type functions
    8    3
       140.252700
        41.726100
        15.398100
         6.277100
         2.618500
         1.052600
         0.391600
         0.126200
  3.376000E-03 -3.495000E-03  0.000000E+00
  2.514100E-02 -2.601500E-02  0.000000E+00
  9.774600E-02 -1.038760E-01  0.000000E+00
  2.347090E-01 -2.520700E-01  0.000000E+00
  3.469450E-01 -2.945800E-01  0.000000E+00
  3.510680E-01  1.152000E-03  0.000000E+00
  2.502550E-01  4.385890E-01  0.000000E+00
  1.000820E-01  5.436260E-01  1.000000E+00
* F-type functions
    2    1
         4.345500
         1.068000
  4.174290E-01
  7.714830E-01
/Cu.cc-pVDZ.Dunning.20s16p8d2f.6s5p3d1f..
N.B. Balabanov and K.A. Peterson, J. Chem. Phys. 123, 064107 (2005).
COPPER       (20s,16p,8d,2f) -> [6s,5p,3d,1f]
         29.   3
* S-type functions
   20    6
   5430321.000000
    813166.500000
    185054.400000
     52414.660000
     17098.680000
      6171.994000
      2406.481000
       997.258400
       433.928900
       196.286900
        91.042800
        41.384250
        19.932780
         9.581891
         4.234516
         1.985814
         0.867083
         0.181339
         0.083657
         0.036267
  7.801026E-06 -4.404706E-06  9.704682E-07 -1.959354E-07 -3.532229E-07  0.000000E+00
  6.065666E-05 -3.424801E-05  7.549245E-06 -1.523472E-06 -2.798812E-06  0.000000E+00
  3.188964E-04 -1.801238E-04  3.968892E-05 -8.014808E-06 -1.432517E-05  0.000000E+00
  1.344687E-03 -7.600455E-04  1.677200E-04 -3.383992E-05 -6.270946E-05  0.000000E+00
  4.869050E-03 -2.759348E-03  6.095101E-04 -1.231191E-04 -2.179490E-04  0.000000E+00
  1.561013E-02 -8.900970E-03  1.978846E-03 -3.992085E-04 -7.474316E-04  0.000000E+00
  4.452077E-02 -2.579378E-02  5.798049E-03 -1.171900E-03 -2.049271E-03  0.000000E+00
  1.103111E-01 -6.623861E-02  1.534158E-02 -3.096141E-03 -5.885203E-03  0.000000E+00
  2.220342E-01 -1.445927E-01  3.540484E-02 -7.171993E-03 -1.226885E-02  0.000000E+00
  3.133739E-01 -2.440110E-01  6.702098E-02 -1.356621E-02 -2.683147E-02  0.000000E+00
  2.315121E-01 -2.504837E-01  8.026945E-02 -1.643989E-02 -2.479261E-02  0.000000E+00
  7.640920E-02  2.852577E-02 -1.927231E-02  4.107628E-03 -5.984746E-03  0.000000E+00
  1.103818E-01  5.115874E-01 -3.160129E-01  6.693964E-02  1.557124E-01  0.000000E+00
  1.094372E-01  4.928061E-01 -4.573162E-01  1.028221E-01  1.436683E-01  0.000000E+00
  1.836311E-02  8.788437E-02  1.550841E-01 -4.422945E-02  8.374103E-03  0.000000E+00
 -6.043084E-04 -5.820281E-03  7.202872E-01 -2.031191E-01 -7.460711E-01  0.000000E+00
  5.092245E-05  2.013508E-04  3.885122E-01 -2.230022E-01  1.244367E-01  0.000000E+00
 -5.540730E-05 -5.182553E-04  1.924326E-02  2.517975E-01  1.510110E+00  0.000000E+00
  3.969482E-05  3.731503E-04 -7.103807E-03  5.650091E-01 -3.477122E-01  0.000000E+00
 -1.269538E-05 -1.193171E-04  3.272906E-03  3.247243E-01 -9.774169E-01  1.000000E+00
* P-type functions
   16    5
     22760.570000
      5387.679000
      1749.945000
       669.665300
       284.194800
       129.607700
        62.254150
        30.929640
        15.758270
         8.094211
         4.046921
         1.967869
         0.925295
         0.352992
         0.127307
         0.044356
  4.000000E-05 -1.500000E-05  3.000000E-06  5.000000E-06  0.000000E+00
  3.610000E-04 -1.310000E-04  2.500000E-05  4.900000E-05  0.000000E+00
  2.083000E-03 -7.550000E-04  1.470000E-04  2.780000E-04  0.000000E+00
  9.197000E-03 -3.359000E-03  6.560000E-04  1.253000E-03  0.000000E+00
  3.266000E-02 -1.208100E-02  2.351000E-03  4.447000E-03  0.000000E+00
  9.379500E-02 -3.570300E-02  7.004000E-03  1.337000E-02  0.000000E+00
  2.082740E-01 -8.250200E-02  1.613100E-02  3.046900E-02  0.000000E+00
  3.339930E-01 -1.398900E-01  2.777000E-02  5.344700E-02  0.000000E+00
  3.324930E-01 -1.407290E-01  2.756700E-02  5.263900E-02  0.000000E+00
  1.547280E-01  3.876600E-02 -1.011500E-02 -1.688100E-02  0.000000E+00
  2.127100E-02  3.426950E-01 -8.100900E-02 -1.794480E-01  0.000000E+00
 -1.690000E-03  4.523100E-01 -1.104090E-01 -2.095880E-01  0.000000E+00
 -1.516000E-03  2.770540E-01 -7.173200E-02 -3.963300E-02  0.000000E+00
 -2.420000E-04  4.388500E-02  1.879300E-01  5.021300E-01  0.000000E+00
  2.300000E-05 -2.802000E-03  5.646290E-01  5.811110E-01  0.000000E+00
 -9.000000E-06  1.152000E-03  4.070000E-01  4.566600E-02  1.000000E+00
* D-type functions
    8    3
       173.897000
        51.886900
        19.341900
         7.975720
         3.398230
         1.409320
         0.548858
         0.190199
  2.700000E-03 -3.363000E-03  0.000000E+00
  2.090900E-02 -2.607900E-02  0.000000E+00
  8.440800E-02 -1.082310E-01  0.000000E+00
  2.139990E-01 -2.822170E-01  0.000000E+00
  3.359800E-01 -3.471900E-01  0.000000E+00
  3.573010E-01  2.671100E-02  0.000000E+00
  2.645780E-01  4.920470E-01  0.000000E+00
  1.039720E-01  4.384220E-01  1.000000E+00
* F-type functions
    2    1
         5.028600
         1.259400
  4.242800E-01
  7.630250E-01
/Zn.cc-pVDZ.Dunning.20s16p8d2f.6s5p3d1f..
N.B. Balabanov and K.A. Peterson, J. Chem. Phys. 123, 064107 (2005).
ZINC         (20s,16p,8d,2f) -> [6s,5p,3d,1f]
         30.   3
* S-type functions
   20    6
   5820021.000000
    871523.400000
    198335.000000
     56176.310000
     18325.820000
      6614.955000
      2579.199000
      1068.849000
       465.104500
       210.413000
        97.616290
        44.380200
        21.423080
        10.308910
         4.553645
         2.132821
         0.929697
         0.192147
         0.087595
         0.037702
  8.549241E-06 -2.640069E-06  9.967103E-07  1.995818E-07 -5.435910E-07  0.000000E+00
  6.647410E-05 -2.052720E-05  7.754163E-06  1.552973E-06 -4.336894E-06  0.000000E+00
  3.494962E-04 -1.079859E-04  4.076019E-05  8.161259E-06 -2.197572E-05  0.000000E+00
  1.473832E-03 -4.558577E-04  1.722811E-04  3.450747E-05 -9.747392E-05  0.000000E+00
  5.338330E-03 -1.657758E-03  6.259370E-04  1.253275E-04 -3.331615E-04  0.000000E+00
  1.712708E-02 -5.368492E-03  2.032855E-03  4.072990E-04 -1.166192E-03  0.000000E+00
  4.894085E-02 -1.571249E-02  5.954646E-03  1.192734E-03 -3.119308E-03  0.000000E+00
  1.217934E-01 -4.122558E-02  1.576640E-02  3.163140E-03 -9.239504E-03  0.000000E+00
  2.476589E-01 -9.406459E-02  3.637638E-02  7.303942E-03 -1.855471E-02  0.000000E+00
  3.582431E-01 -1.719954E-01  6.892343E-02  1.391279E-02 -4.281189E-02  0.000000E+00
  2.798174E-01 -1.958523E-01  8.238093E-02  1.670620E-02 -3.571095E-02  0.000000E+00
  6.857491E-02  4.532907E-02 -2.011360E-02 -4.035586E-03 -1.638350E-02  0.000000E+00
 -1.311092E-03  5.244442E-01 -3.252526E-01 -6.968861E-02  2.644664E-01  0.000000E+00
  1.914001E-03  5.006142E-01 -4.602899E-01 -1.030105E-01  2.086588E-01  0.000000E+00
 -8.759220E-04  8.945527E-02  1.635546E-01  4.471442E-02 -1.774382E-02  0.000000E+00
  3.740096E-04 -2.146262E-03  7.297118E-01  2.150027E-01 -1.353873E+00  0.000000E+00
 -1.401399E-04  2.112113E-03  3.769751E-01  2.220163E-01  8.182926E-01  0.000000E+00
  4.757132E-05 -4.133980E-04  1.433224E-02 -3.114776E-01  1.695036E+00  0.000000E+00
 -3.642711E-05  3.209752E-04 -6.671210E-03 -5.693429E-01 -1.388656E+00  0.000000E+00
  1.153248E-05 -1.016140E-04  1.766214E-03 -2.678440E-01 -2.188900E-01  1.000000E+00
* P-type functions
   16    5
     24411.980000
      5778.518000
      1876.862000
       718.236100
       304.832700
       139.045300
        66.804170
        33.206990
        16.928160
         8.696229
         4.350510
         2.116523
         0.995387
         0.378112
         0.134579
         0.046282
  4.100000E-05 -1.500000E-05  3.000000E-06  5.000000E-06  0.000000E+00
  3.610000E-04 -1.350000E-04  2.500000E-05  4.200000E-05  0.000000E+00
  2.088000E-03 -7.820000E-04  1.440000E-04  2.380000E-04  0.000000E+00
  9.221000E-03 -3.478000E-03  6.450000E-04  1.088000E-03  0.000000E+00
  3.277300E-02 -1.252000E-02  2.311000E-03  3.821000E-03  0.000000E+00
  9.417900E-02 -3.701600E-02  6.898000E-03  1.164400E-02  0.000000E+00
  2.091320E-01 -8.555900E-02  1.588200E-02  2.616700E-02  0.000000E+00
  3.345690E-01 -1.447180E-01  2.735000E-02  4.675000E-02  0.000000E+00
  3.303590E-01 -1.434420E-01  2.662100E-02  4.330900E-02  0.000000E+00
  1.523470E-01  4.359500E-02 -1.085800E-02 -1.342900E-02  0.000000E+00
  2.298400E-02  3.488880E-01 -7.985300E-02 -1.538970E-01  0.000000E+00
  1.607000E-03  4.538650E-01 -1.061270E-01 -1.674130E-01  0.000000E+00
  4.680000E-04  2.685940E-01 -6.888300E-02 -8.499500E-02  0.000000E+00
  6.600000E-05  3.886800E-02  1.843850E-01  4.508130E-01  0.000000E+00
 -2.000000E-06 -2.492000E-03  5.617880E-01  6.408690E-01  0.000000E+00
  0.000000E+00  1.014000E-03  4.144160E-01  5.417200E-02  1.000000E+00
* D-type functions
    8    3
       205.617700
        61.449810
        23.056890
         9.577739
         4.133734
         1.747518
         0.699560
         0.251608
  2.342000E-03  3.279000E-03  0.000000E+00
  1.860600E-02  2.617600E-02  0.000000E+00
  7.710200E-02  1.113670E-01  0.000000E+00
  2.020260E-01  3.045810E-01  0.000000E+00
  3.294540E-01  3.862990E-01  0.000000E+00
  3.609760E-01 -5.837500E-02  0.000000E+00
  2.716570E-01 -5.388760E-01  0.000000E+00
  1.049810E-01 -3.454730E-01  1.000000E+00
* F-type functions
    2    1
         5.734400
         1.461500
  4.311320E-01
  7.546420E-01
/Ga.cc-pVDZ.Dunning.14s11p6d.5s4p2d..
A.K. Wilson, D.E. Woon, K.A. Peterson and T.H. Dunning, Jr. J. Chem. Phys. 110, 7667 (1999).
GALLIUM      (14s,11p,6d) -> [5s,4p,2d]
         31.   2
* S-type functions
   14    5
   485130.0000000
    72719.0000000
    16552.0000000
     4687.8000000
     1529.1000000
      551.8100000
      215.1800000
       88.1740000
       27.1540000
       11.5030000
        3.3018000
        1.3314000
        0.1931600
        0.0708950
  0.0002068 -0.0000643  0.0000245 -0.0000057  0.0000000
  0.0016047 -0.0004954  0.0001895 -0.0000440  0.0000000
  0.0083402 -0.0026208  0.0009964 -0.0002305  0.0000000
  0.0340248 -0.0106839  0.0041082 -0.0009544  0.0000000
  0.1111699 -0.0374123  0.0142938 -0.0033055  0.0000000
  0.2753930 -0.1009636  0.0398034 -0.0092888  0.0000000
  0.4212628 -0.2145141  0.0855940 -0.0198644  0.0000000
  0.2738906 -0.1752297  0.0796305 -0.0190888  0.0000000
  0.0283720  0.4831599 -0.2939107  0.0732356  0.0000000
 -0.0062931  0.6323677 -0.5263914  0.1341526  0.0000000
  0.0020606  0.0684942  0.5864249 -0.1831929  0.0000000
 -0.0009269 -0.0118712  0.6726347 -0.3571308  0.0000000
  0.0002273  0.0026652  0.0276123  0.6246013  0.0000000
 -0.0001063 -0.0012251 -0.0093651  0.5238430  1.0000000
* P-type functions
   11    4
     3248.6000000
      769.9700000
      248.2000000
       93.3640000
       38.2510000
       16.4220000
        6.7918000
        2.8336000
        1.1062000
        0.2225000
        0.0617720
  0.0015260 -0.0005803  0.0000950  0.0000000
  0.0127486 -0.0048647  0.0007832  0.0000000
  0.0633742 -0.0248394  0.0040855  0.0000000
  0.2065775 -0.0841759  0.0135987  0.0000000
  0.4092963 -0.1800885  0.0302695  0.0000000
  0.3919183 -0.1585555  0.0241790  0.0000000
  0.1029441  0.2355376 -0.0423777  0.0000000
 -0.0007203  0.5820587 -0.1265661  0.0000000
  0.0020950  0.3366619 -0.0499444  0.0000000
 -0.0003290  0.0171912  0.4494199  0.0000000
  0.0001162 -0.0033265  0.6718899  1.0000000
* D-type functions
    6    2
       65.3370000
       18.4970000
        6.3150000
        2.1635000
        0.6667500
        0.1884000
  0.0273825  0.0000000
  0.1510805  0.0000000
  0.3749217  0.0000000
  0.4750799  0.0000000
  0.2982750  0.0000000
  0.0000000  1.0000000
/Ge.cc-pVDZ.Dunning.14s11p6d.5s4p2d..
A.K. Wilson, D.E. Woon, K.A. Peterson and T.H. Dunning, Jr. J. Chem. Phys. 110, 7667 (1999).
GERMANIUM    (14s,11p,6d) -> [5s,4p,2d]
         32.   2
* S-type functions
   14    5
   521800.0000000
    78214.0000000
    17803.0000000
     5041.9000000
     1644.5000000
      593.4300000
      231.3600000
       94.7620000
       29.2740000
       12.4500000
        3.6463000
        1.5025000
        0.2450300
        0.0915940
  0.0002045 -0.0000638  0.0000246 -0.0000063  0.0000000
  0.0015868 -0.0004916  0.0001900 -0.0000486  0.0000000
  0.0082480 -0.0026002  0.0009993 -0.0002553  0.0000000
  0.0336649 -0.0106080  0.0041200 -0.0010560  0.0000000
  0.1101249 -0.0371602  0.0143557 -0.0036674  0.0000000
  0.2735607 -0.1005790  0.0400375 -0.0103053  0.0000000
  0.4210670 -0.2143977  0.0865794 -0.0222200  0.0000000
  0.2766791 -0.1782617  0.0815861 -0.0215275  0.0000000
  0.0292180  0.4777404 -0.2934770  0.0806752  0.0000000
 -0.0065903  0.6355983 -0.5367983  0.1524958  0.0000000
  0.0022430  0.0722174  0.5637985 -0.1980528  0.0000000
 -0.0010382 -0.0127265  0.6947182 -0.4073954  0.0000000
  0.0002695  0.0029608  0.0315730  0.6477288  0.0000000
 -0.0001228 -0.0013292 -0.0098949  0.5222033  1.0000000
* P-type functions
   11    4
     3568.1000000
      845.7200000
      272.7400000
      102.6800000
       42.1480000
       18.1490000
        7.5934000
        3.1964000
        1.2743000
        0.2825800
        0.0840900
  0.0014591 -0.0005630  0.0001115  0.0000000
  0.0122176 -0.0047354  0.0009212  0.0000000
  0.0610490 -0.0242643  0.0048273  0.0000000
  0.2008039 -0.0830900  0.0162272  0.0000000
  0.4038942 -0.1800247  0.0366354  0.0000000
  0.3970027 -0.1663295  0.0307867  0.0000000
  0.1105481  0.2193717 -0.0480643  0.0000000
  0.0000768  0.5820239 -0.1559804  0.0000000
  0.0021263  0.3477720 -0.0632370  0.0000000
 -0.0003744  0.0192455  0.5040819  0.0000000
  0.0001321 -0.0034825  0.6182200  1.0000000
* D-type functions
    6    2
       74.7620000
       21.3020000
        7.3436000
        2.5651000
        0.8197000
        0.2470000
  0.0257684  0.0000000
  0.1454421  0.0000000
  0.3713721  0.0000000
  0.4800002  0.0000000
  0.2896800  0.0000000
  0.0000000  1.0000000
/As.cc-pVDZ.Dunning.14s11p6d.5s4p2d..
A.K. Wilson, D.E. Woon, K.A. Peterson and T.H. Dunning, Jr. J. Chem. Phys. 110, 7667 (1999).
ARSENIC      (14s,11p,6d) -> [5s,4p,2d]
         33.   2
* S-type functions
   14    5
   559583.7900000
    83879.3300000
    19092.6680000
     5407.3925000
     1763.7559000
      636.4567200
      248.0884300
      101.5785100
       31.4755130
       13.4372820
        4.0086900
        1.6849290
        0.3000190
        0.1135870
  0.0002024 -0.0000634  0.0000246 -0.0000068  0.0000000
  0.0015709 -0.0004883  0.0001907 -0.0000525  0.0000000
  0.0081662 -0.0025821  0.0010031 -0.0002756  0.0000000
  0.0333399 -0.0105402  0.0041353 -0.0011389  0.0000000
  0.1091726 -0.0369325  0.0144259 -0.0039646  0.0000000
  0.2718853 -0.1002355  0.0402962 -0.0111423  0.0000000
  0.4208509 -0.2142948  0.0875670 -0.0241991  0.0000000
  0.2792257 -0.1810526  0.0835178 -0.0236339  0.0000000
  0.0300301  0.4725410 -0.2932935  0.0866317  0.0000000
 -0.0068804  0.6386194 -0.5470520  0.1685839  0.0000000
  0.0024240  0.0758107  0.5438738 -0.2091425  0.0000000
 -0.0011491 -0.0135278  0.7143591 -0.4500918  0.0000000
  0.0003095  0.0031970  0.0353443  0.6603978  0.0000000
 -0.0001377 -0.0014056 -0.0102892  0.5284152  1.0000000
* P-type functions
   11    4
     3886.3564000
      921.2020100
      297.1931900
      111.9750800
       46.0346210
       19.8741940
        8.3860880
        3.5587280
        1.4472820
        0.3477790
        0.1076990
  0.0014097 -0.0005519  0.0001236  0.0000000
  0.0118277 -0.0046550  0.0010240  0.0000000
  0.0593280 -0.0239176  0.0053805  0.0000000
  0.1965115 -0.0825627  0.0182443  0.0000000
  0.3997891 -0.1806791  0.0415979  0.0000000
  0.4004653 -0.1724848  0.0362998  0.0000000
  0.1164196  0.2086700 -0.0523569  0.0000000
  0.0006918  0.5823622 -0.1791667  0.0000000
  0.0021633  0.3537465 -0.0740477  0.0000000
 -0.0004150  0.0206439  0.5358094  0.0000000
  0.0001452 -0.0036382  0.5888104  1.0000000
* D-type functions
    6    2
       84.4242340
       24.1815890
        8.4017770
        2.9805020
        0.9790030
        0.3098000
  0.0245288  0.0000000
  0.1411340  0.0000000
  0.3687579  0.0000000
  0.4840626  0.0000000
  0.2824434  0.0000000
  0.0000000  1.0000000
/Se.cc-pVDZ.Dunning.14s11p6d.5s4p2d..
A.K. Wilson, D.E. Woon, K.A. Peterson and T.H. Dunning, Jr. J. Chem. Phys. 110, 7667 (1999).
SELENIUM     (14s,11p,6d) -> [5s,4p,2d]
         34.   2
* S-type functions
   14    5
   598990.0000000
    89783.0000000
    20435.0000000
     5786.9000000
     1887.3000000
      680.9700000
      265.3900000
      108.6300000
       33.7600000
       14.4650000
        4.3890000
        1.8783000
        0.3585900
        0.1364900
  0.0002004 -0.0000629  0.0000247 -0.0000072 0.0000000
  0.0015554 -0.0004850  0.0001913 -0.0000559 0.0000000
  0.0080872 -0.0025644  0.0010068 -0.0002938 0.0000000
  0.0330344 -0.0104761  0.0041514 -0.0012136 0.0000000
  0.1082924 -0.0367223  0.0144991 -0.0042340 0.0000000
  0.2703361 -0.0999225  0.0405658 -0.0119035 0.0000000
  0.4206236 -0.2141973  0.0885364 -0.0260206 0.0000000
  0.2815922 -0.1836593  0.0854212 -0.0256148 0.0000000
  0.0308110  0.4675454 -0.2932581  0.0919427 0.0000000
 -0.0071617  0.6414740 -0.5570727  0.1838700 0.0000000
  0.0026022  0.0792569  0.5261436 -0.2188461 0.0000000
 -0.0012583 -0.0142697  0.7320371 -0.4896524 0.0000000
  0.0003465  0.0033792  0.0388246  0.6775818 0.0000000
 -0.0001503 -0.0014537 -0.0105036  0.5296721 1.0000000
* P-type functions
   11    4
     4135.6000000
      980.3400000
      316.3500000
      119.2500000
       49.0680000
       21.2120000
        8.9462000
        3.8236000
        1.5883000
        0.4096900
        0.1245900
  0.0014127 -0.0005610  0.0001366  0.0000000
  0.0118588 -0.0047340  0.0011308  0.0000000
  0.0595153 -0.0243504  0.0059581  0.0000000
  0.1972201 -0.0841071  0.0201866  0.0000000
  0.4007439 -0.1841384  0.0461939  0.0000000
  0.3994740 -0.1735004  0.0394050  0.0000000
  0.1153364  0.2167263 -0.0592846  0.0000000
  0.0002219  0.5850099 -0.2014663  0.0000000
  0.0022838  0.3416816 -0.0687821  0.0000000
 -0.0004756  0.0199125  0.5595944  0.0000000
  0.0001516 -0.0026131  0.5709784  1.0000000
* D-type functions
    6    2
       94.4720000
       27.1800000
        9.5068000
        3.4168000
        1.1479000
        0.3682000
  0.0234982  0.0000000
  0.1375183  0.0000000
  0.3664824  0.0000000
  0.4874717  0.0000000
  0.2765769  0.0000000
  0.0000000  1.0000000
/Br.cc-pVDZ.Dunning.14s11p6d.5s4p2d..
A.K. Wilson, D.E. Woon, K.A. Peterson and T.H. Dunning, Jr. J. Chem. Phys. 110, 7667 (1999).
BROMINE      (14s,11p,6d) -> [5s,4p,2d]
         35.   2
* S-type functions
   14    5
   640100.0000000
    95938.0000000
    21833.0000000
     6181.9000000
     2015.7000000
      727.1000000
      283.2800000
      115.9100000
       36.1240000
       15.5320000
        4.7857000
        2.0817000
        0.4202800
        0.1606900
  0.0001984 -0.0000625  0.0000248 -0.0000076  0.0000000
  0.0015400 -0.0004816  0.0001919 -0.0000588  0.0000000
  0.0080096 -0.0025466  0.0010100 -0.0003092  0.0000000
  0.0327341 -0.0104112  0.0041659 -0.0012766  0.0000000
  0.1074480 -0.0365179  0.0145683 -0.0044634  0.0000000
  0.2688946 -0.0996295  0.0408345 -0.0125575  0.0000000
  0.4204411 -0.2141310  0.0894859 -0.0276145  0.0000000
  0.2838041 -0.1860911  0.0872786 -0.0273945  0.0000000
  0.0315455  0.4628261 -0.2933644  0.0964094  0.0000000
 -0.0074268  0.6441141 -0.5667109  0.1976871  0.0000000
  0.0027728  0.0825502  0.5105658 -0.2266693  0.0000000
 -0.0013635 -0.0149694  0.7477214 -0.5241165  0.0000000
  0.0003812  0.0035288  0.0421512  0.6889865  0.0000000
 -0.0001615 -0.0014909 -0.0106612  0.5344331  1.0000000
* P-type functions
   11    4
     4340.8000000
     1028.9000000
      332.0200000
      125.1600000
       51.5110000
       22.2810000
        9.3417000
        4.0132000
        1.7002000
        0.4719400
        0.1442100
  0.0014448 -0.0005819  0.0001518  0.0000000
  0.0121288 -0.0049065  0.0012563  0.0000000
  0.0608077 -0.0252514  0.0066224  0.0000000
  0.2009358 -0.0869445  0.0223816  0.0000000
  0.4047419 -0.1893422  0.0509717  0.0000000
  0.3957151 -0.1710882  0.0414009  0.0000000
  0.1102213  0.2368755 -0.0703970  0.0000000
 -0.0009090  0.5898400 -0.2232540  0.0000000
  0.0024832  0.3171944 -0.0564179  0.0000000
 -0.0005744  0.0179833  0.5808079  0.0000000
  0.0001691 -0.0014683  0.5508132  1.0000000
* D-type functions
    6    2
      104.8300000
       30.2720000
       10.6490000
        3.8696000
        1.3239000
        0.4098000
  0.0226583  0.0000000
  0.1345895  0.0000000
  0.3647181  0.0000000
  0.4904196  0.0000000
  0.2713885  0.0000000
  0.0000000  1.0000000
/Kr.cc-pVDZ.Dunning.14s11p6d.5s4p2d..
A.K. Wilson, D.E. Woon, K.A. Peterson and T.H. Dunning, Jr. J. Chem. Phys. 110, 7667 (1999).
KRYPTON      (14s,11p,6d) -> [5s,4p,2d]
         36.   2
* S-type functions
   14    5
   681358.8200000
   102126.4800000
    23243.7100000
     6582.0073000
     2146.4286000
      774.3378200
      301.6702000
      123.4118400
       38.5675510
       16.6373790
        5.1987950
        2.2948140
        0.4852110
        0.1862700
  0.0001969 -0.0000622  0.0000249 -0.0000079  0.0000000
  0.0015286 -0.0004794  0.0001928 -0.0000614  0.0000000
  0.0079500 -0.0025341  0.0010149 -0.0003230  0.0000000
  0.0324938 -0.0103636  0.0041857 -0.0013330  0.0000000
  0.1067240 -0.0363516  0.0146459 -0.0046672  0.0000000
  0.2675701 -0.0993737  0.0411070 -0.0131352  0.0000000
  0.4201851 -0.2140610  0.0903955 -0.0290342  0.0000000
  0.2858015 -0.1883192  0.0890623 -0.0290173  0.0000000
  0.0322461  0.4583816 -0.2935718  0.1002664  0.0000000
 -0.0076828  0.6465664 -0.5759698  0.2103818  0.0000000
  0.0029393  0.0856579  0.4968578 -0.2332471  0.0000000
 -0.0014662 -0.0156123  0.7616895 -0.5546497  0.0000000
  0.0004144  0.0036490  0.0453267  0.6969522  0.0000000
 -0.0001720 -0.0015189 -0.0107722  0.5408152  1.0000000
* P-type functions
   11    4
     4474.2699000
     1060.5790000
      342.2081200
      128.9984200
       53.0872220
       22.9594250
        9.5073000
        4.0830550
        1.7504460
        0.5291900
        0.1643690
  0.0015195 -0.0006208  0.0001701  0.0000000
  0.0127424 -0.0052212  0.0014064  0.0000000
  0.0636465 -0.0268463  0.0073963  0.0000000
  0.2085635 -0.0915823  0.0248254  0.0000000
  0.4122423 -0.1968164  0.0557155  0.0000000
  0.3878103 -0.1634750  0.0412132  0.0000000
  0.1003820  0.2738204 -0.0876057  0.0000000
 -0.0025078  0.5981592 -0.2440586  0.0000000
  0.0027139  0.2750453 -0.0295007  0.0000000
 -0.0006977  0.0127706  0.6012295  0.0000000
  0.0002107 -0.0010135  0.5254807  1.0000000
* D-type functions
    6    2
      115.5253200
       33.4652460
       11.8304590
        4.3397710
        1.5075240
        0.5030000
  0.0219557  0.0000000
  0.1321620  0.0000000
  0.3633484  0.0000000
  0.4929582  0.0000000
  0.2667560  0.0000000
  0.0000000  1.0000000
