************************************************************************
* This file is part of OpenMolcas.                                     *
*                                                                      *
* OpenMolcas is free software; you can redistribute it and/or modify   *
* it under the terms of the GNU Lesser General Public License, v. 2.1. *
* OpenMolcas is distributed in the hope that it will be useful, but it *
* is provided "as is" and without any express or implied warranties.   *
* For more details see the full text of the license in the file        *
* LICENSE or in <http://www.gnu.org/licenses/>.                        *
************************************************************************
cc-pVTZ
/H.cc-pVTZ.Dunning.5s2p1d.3s2p1d..
T.H. Dunning, Jr. J. Chem. Phys. 90, 1007 (1989).
HYDROGEN     (5s,2p,1d) -> [3s,2p,1d]
Options
OrbitalEnergies
EndOptions
          1.   2
* S-type functions
    5    3
      33.87000000
       5.09500000
       1.15900000
       0.32580000
       0.10270000
  0.00606800  0.00000000  0.00000000
  0.04530800  0.00000000  0.00000000
  0.20282200  0.00000000  0.00000000
  0.50390300  1.00000000  0.00000000
  0.38342100  0.00000000  1.00000000
 1
 -0.50
* P-type functions
    2    2
       1.40700000
       0.38800000
  1.00000000  0.00000000
  0.00000000  1.00000000
 0
* D-type functions
    1    1
       1.05700000
  1.00000000
 0
/He.cc-pVTZ.Dunning.6s2p1d.3s2p1d..
D.E. Woon and T.H. Dunning, Jr. J. Chem. Phys. 100, 2975 (1994).
HELIUM       (6s,2p,1d) -> [3s,2p,1d]
Options
OrbitalEnergies
EndOptions
          2.   2
* S-type functions
    6    3
     234.00000000
      35.16000000
       7.98900000
       2.21200000
       0.66690000
       0.20890000
  0.00258700  0.00000000  0.00000000
  0.01953300  0.00000000  0.00000000
  0.09099800  0.00000000  0.00000000
  0.27205000  0.00000000  0.00000000
  0.47806500  1.00000000  0.00000000
  0.30773700  0.00000000  1.00000000
 1
 -0.91795
* P-type functions
    2    2
       3.04400000
       0.75800000
  1.00000000  0.00000000
  0.00000000  1.00000000
 0
* D-type functions
    1    1
       1.96500000
  1.00000000
 0
/Li.cc-pVTZ.Dunning.11s5p2d1f.4s3p2d1f..
T.H. Dunning, Jr. J. Chem. Phys. 90, 1007 (1989).
LITHIUM      (11s,5p,2d,1f) -> [4s,3p,2d,1f]
Options
OrbitalEnergies
EndOptions
          3.   3
* S-type functions
   11    4
    5988.00000000
     898.90000000
     205.90000000
      59.24000000
      19.87000000
       7.40600000
       2.93000000
       1.18900000
       0.47980000
       0.07509000
       0.02832000
  0.00013300 -0.00002100  0.00000000  0.00000000
  0.00102500 -0.00016100  0.00000000  0.00000000
  0.00527200 -0.00082000  0.00000000  0.00000000
  0.02092900 -0.00332600  0.00000000  0.00000000
  0.06634000 -0.01051900  0.00000000  0.00000000
  0.16577500 -0.02809700  0.00000000  0.00000000
  0.31503800 -0.05593600  0.00000000  0.00000000
  0.39352300 -0.09923700  0.00000000  0.00000000
  0.19087000 -0.11218900  0.00000000  0.00000000
  0.00541400  0.56788900  1.00000000  0.00000000
 -0.00132800  0.53038200  0.00000000  1.00000000
 2
 -2.47773  -0.19632
* P-type functions
    5    3
       3.26600000
       0.65110000
       0.16960000
       0.05578000
       0.02050000
  0.00863000  0.00000000  0.00000000
  0.04753800  0.00000000  0.00000000
  0.20977200  0.00000000  0.00000000
  0.52852200  1.00000000  0.00000000
  0.38274400  0.00000000  1.00000000
 0
* D-type functions
    2    2
       0.18740000
       0.08010000
  1.00000000  0.00000000
  0.00000000  1.00000000
 0
* F-type functions
    1    1
       0.18290000
  1.00000000
 0
/Be.cc-pVTZ.Dunning.11s5p2d1f.4s3p2d1f..
T.H. Dunning, Jr. J. Chem. Phys. 90, 1007 (1989).
BERYLLIUM    (11s,5p,2d,1f) -> [4s,3p,2d,1f]
Options
OrbitalEnergies
EndOptions
          4.   3
* S-type functions
   11    4
    6863.00000000
    1030.00000000
     234.70000000
      66.56000000
      21.69000000
       7.73400000
       2.91600000
       1.13000000
       0.25770000
       0.11010000
       0.04409000
  0.00023600 -0.00004300  0.00000000  0.00000000
  0.00182600 -0.00033300  0.00000000  0.00000000
  0.00945200 -0.00173600  0.00000000  0.00000000
  0.03795700 -0.00701200  0.00000000  0.00000000
  0.11996500 -0.02312600  0.00000000  0.00000000
  0.28216200 -0.05813800  0.00000000  0.00000000
  0.42740400 -0.11455600  0.00000000  0.00000000
  0.26627800 -0.13590800  0.00000000  0.00000000
  0.01819300  0.22802600  1.00000000  0.00000000
 -0.00727500  0.57744100  0.00000000  0.00000000
  0.00190300  0.31787300  0.00000000  1.00000000
 2
 -4.73267  -0.30927
* P-type functions
    5    3
       7.43600000
       1.57700000
       0.43520000
       0.14380000
       0.04994000
  0.01073600  0.00000000  0.00000000
  0.06285400  0.00000000  0.00000000
  0.24818000  0.00000000  0.00000000
  0.52369900  1.00000000  0.00000000
  0.35342500  0.00000000  1.00000000
 0
* D-type functions
    2    2
       0.34800000
       0.18030000
  1.00000000  0.00000000
  0.00000000  1.00000000
 0
* F-type functions
    1    1
       0.32500000
  1.00000000
 0
/B.cc-pVTZ.Dunning.10s5p2d1f.4s3p2d1f..
T.H. Dunning, Jr. J. Chem. Phys. 90, 1007 (1989).
BORON        (10s,5p,2d,1f) -> [4s,3p,2d,1f]
Options
OrbitalEnergies
EndOptions
          5.   3
* S-type functions
   10    4
    5473.00000000
     820.90000000
     186.80000000
      52.83000000
      17.08000000
       5.99900000
       2.20800000
       0.58790000
       0.24150000
       0.08610000
  0.00055500 -0.00011200  0.00000000  0.00000000
  0.00429100 -0.00086800  0.00000000  0.00000000
  0.02194900 -0.00448400  0.00000000  0.00000000
  0.08444100 -0.01768300  0.00000000  0.00000000
  0.23855700 -0.05363900  0.00000000  0.00000000
  0.43507200 -0.11900500  0.00000000  0.00000000
  0.34195500 -0.16582400  0.00000000  0.00000000
  0.03685600  0.12010700  1.00000000  0.00000000
 -0.00954500  0.59598100  0.00000000  0.00000000
  0.00236800  0.41102100  0.00000000  1.00000000
 2
 -7.69533  -0.49469
* P-type functions
    5    3
      12.05000000
       2.61300000
       0.74750000
       0.23850000
       0.07698000
  0.01311800  0.00000000  0.00000000
  0.07989600  0.00000000  0.00000000
  0.27727500  0.00000000  0.00000000
  0.50427000  1.00000000  0.00000000
  0.35368000  0.00000000  1.00000000
 1
 -0.30986
* D-type functions
    2    2
       0.66100000
       0.19900000
  1.00000000  0.00000000
  0.00000000  1.00000000
 0
* F-type functions
    1    1
       0.49000000
  1.00000000
 0
/C.cc-pVTZ.Dunning.10s5p2d1f.4s3p2d1f..
T.H. Dunning, Jr. J. Chem. Phys. 90, 1007 (1989).
CARBON       (10s,5p,2d,1f) -> [4s,3p,2d,1f]
Options
OrbitalEnergies
EndOptions
          6.   3
* S-type functions
   10    4
    8236.00000000
    1235.00000000
     280.80000000
      79.27000000
      25.59000000
       8.99700000
       3.31900000
       0.90590000
       0.36430000
       0.12850000
  0.00053100 -0.00011300  0.00000000  0.00000000
  0.00410800 -0.00087800  0.00000000  0.00000000
  0.02108700 -0.00454000  0.00000000  0.00000000
  0.08185300 -0.01813300  0.00000000  0.00000000
  0.23481700 -0.05576000  0.00000000  0.00000000
  0.43440100 -0.12689500  0.00000000  0.00000000
  0.34612900 -0.17035200  0.00000000  0.00000000
  0.03937800  0.14038200  1.00000000  0.00000000
 -0.00898300  0.59868400  0.00000000  0.00000000
  0.00238500  0.39538900  0.00000000  1.00000000
 2
 -11.32554  -0.70563
* P-type functions
    5    3
      18.71000000
       4.13300000
       1.20000000
       0.38270000
       0.12090000
  0.01403100  0.00000000  0.00000000
  0.08686600  0.00000000  0.00000000
  0.29021600  0.00000000  0.00000000
  0.50100800  1.00000000  0.00000000
  0.34340600  0.00000000  1.00000000
 1
 -0.43335
* D-type functions
    2    2
       1.09700000
       0.31800000
  1.00000000  0.00000000
  0.00000000  1.00000000
 0
* F-type functions
    1    1
       0.76100000
  1.00000000
 0
/N.cc-pVTZ.Dunning.10s5p2d1f.4s3p2d1f..
T.H. Dunning, Jr. J. Chem. Phys. 90, 1007 (1989).
NITROGEN     (10s,5p,2d,1f) -> [4s,3p,2d,1f]
Options
OrbitalEnergies
EndOptions
          7.   3
* S-type functions
   10    4
   11420.00000000
    1712.00000000
     389.30000000
     110.00000000
      35.57000000
      12.54000000
       4.64400000
       1.29300000
       0.51180000
       0.17870000
  0.00052300 -0.00011500  0.00000000  0.00000000
  0.00404500 -0.00089500  0.00000000  0.00000000
  0.02077500 -0.00462400  0.00000000  0.00000000
  0.08072700 -0.01852800  0.00000000  0.00000000
  0.23307400 -0.05733900  0.00000000  0.00000000
  0.43350100 -0.13207600  0.00000000  0.00000000
  0.34747200 -0.17251000  0.00000000  0.00000000
  0.04126200  0.15181400  1.00000000  0.00000000
 -0.00850800  0.59994400  0.00000000  0.00000000
  0.00238400  0.38746200  0.00000000  1.00000000
 2
 -15.62909  -0.94531
* P-type functions
    5    3
      26.63000000
       5.94800000
       1.74200000
       0.55500000
       0.17250000
  0.01467000  0.00000000  0.00000000
  0.09176400  0.00000000  0.00000000
  0.29868300  0.00000000  0.00000000
  0.49848700  1.00000000  0.00000000
  0.33702300  0.00000000  1.00000000
 1
 -0.56758
* D-type functions
    2    2
       1.65400000
       0.46900000
  1.00000000  0.00000000
  0.00000000  1.00000000
 0
* F-type functions
    1    1
       1.09300000
  1.00000000
 0
/O.cc-pVTZ.Dunning.10s5p2d1f.4s3p2d1f..
T.H. Dunning, Jr. J. Chem. Phys. 90, 1007 (1989).
OXYGEN       (10s,5p,2d,1f) -> [4s,3p,2d,1f]
Options
OrbitalEnergies
EndOptions
          8.   3
* S-type functions
   10    4
   15330.00000000
    2299.00000000
     522.40000000
     147.30000000
      47.55000000
      16.76000000
       6.20700000
       1.75200000
       0.68820000
       0.23840000
  0.00050800 -0.00011500  0.00000000  0.00000000
  0.00392900 -0.00089500  0.00000000  0.00000000
  0.02024300 -0.00463600  0.00000000  0.00000000
  0.07918100 -0.01872400  0.00000000  0.00000000
  0.23068700 -0.05846300  0.00000000  0.00000000
  0.43311800 -0.13646300  0.00000000  0.00000000
  0.35026000 -0.17574000  0.00000000  0.00000000
  0.04272800  0.16093400  1.00000000  0.00000000
 -0.00815400  0.60341800  0.00000000  0.00000000
  0.00238100  0.37876500  0.00000000  1.00000000
 2
 -20.66866  -1.24433
* P-type functions
    5    3
      34.46000000
       7.74900000
       2.28000000
       0.71560000
       0.21400000
  0.01592800  0.00000000  0.00000000
  0.09974000  0.00000000  0.00000000
  0.31049200  0.00000000  0.00000000
  0.49102600  1.00000000  0.00000000
  0.33633700  0.00000000  1.00000000
 1
 -0.63192
* D-type functions
    2    2
       2.31400000
       0.64500000
  1.00000000  0.00000000
  0.00000000  1.00000000
 0
* F-type functions
    1    1
       1.42800000
  1.00000000
 0
/F.cc-pVTZ.Dunning.10s5p2d1f.4s3p2d1f..
T.H. Dunning, Jr. J. Chem. Phys. 90, 1007 (1989).
FLUORINE     (10s,5p,2d,1f) -> [4s,3p,2d,1f]
Options
OrbitalEnergies
EndOptions
          9.   3
* S-type functions
   10    4
   19500.00000000
    2923.00000000
     664.50000000
     187.50000000
      60.62000000
      21.42000000
       7.95000000
       2.25700000
       0.88150000
       0.30410000
  0.00050700 -0.00011700  0.00000000  0.00000000
  0.00392300 -0.00091200  0.00000000  0.00000000
  0.02020000 -0.00471700  0.00000000  0.00000000
  0.07901000 -0.01908600  0.00000000  0.00000000
  0.23043900 -0.05965500  0.00000000  0.00000000
  0.43287200 -0.14001000  0.00000000  0.00000000
  0.34996400 -0.17678200  0.00000000  0.00000000
  0.04323300  0.17162500  1.00000000  0.00000000
 -0.00789200  0.60504300  0.00000000  0.00000000
  0.00238400  0.36951200  0.00000000  1.00000000
 2
 -26.38273  -1.57254
* P-type functions
    5    3
      43.88000000
       9.92600000
       2.93000000
       0.91320000
       0.26720000
  0.01666500  0.00000000  0.00000000
  0.10447200  0.00000000  0.00000000
  0.31726000  0.00000000  0.00000000
  0.48734300  1.00000000  0.00000000
  0.33460400  0.00000000  1.00000000
 1
 -0.73001
* D-type functions
    2    2
       3.10700000
       0.85500000
  1.00000000  0.00000000
  0.00000000  1.00000000
 0
* F-type functions
    1    1
       1.91700000
  1.00000000
 0
/Ne.cc-pVTZ.Dunning.10s5p2d1f.4s3p2d1f..
T.H. Dunning, Jr. J. Chem. Phys. 90, 1007 (1989).
NEON         (10s,5p,2d,1f) -> [4s,3p,2d,1f]
Options
OrbitalEnergies
EndOptions
         10.   3
* S-type functions
   10    4
   24350.00000000
    3650.00000000
     829.60000000
     234.00000000
      75.61000000
      26.73000000
       9.92700000
       2.83600000
       1.10200000
       0.37820000
  0.00050200 -0.00011800  0.00000000  0.00000000
  0.00388100 -0.00091500  0.00000000  0.00000000
  0.01999700 -0.00473700  0.00000000  0.00000000
  0.07841800 -0.01923300  0.00000000  0.00000000
  0.22967600 -0.06036900  0.00000000  0.00000000
  0.43272200 -0.14250800  0.00000000  0.00000000
  0.35064200 -0.17771000  0.00000000  0.00000000
  0.04391100  0.17735200  1.00000000  0.00000000
 -0.00764500  0.60583600  0.00000000  0.00000000
  0.00237500  0.36510900  0.00000000  1.00000000
 2
 -32.77248  -1.93043
* P-type functions
    5    3
      54.70000000
      12.43000000
       3.67900000
       1.14300000
       0.33000000
  0.01715100  0.00000000  0.00000000
  0.10765600  0.00000000  0.00000000
  0.32168100  0.00000000  0.00000000
  0.48523200  1.00000000  0.00000000
  0.33258400  0.00000000  1.00000000
 1
 -0.85044
* D-type functions
    2    2
       4.01400000
       1.09600000
  1.00000000  0.00000000
  0.00000000  1.00000000
 0
* F-type functions
    1    1
       2.54400000
  1.00000000
 0
/Na.cc-pVTZ.Dunning.16s10p2d1f.4s3p2d1f..
D.E. Woon and T.H. Dunning, Jr.  (to be published)
SODIUM       (16s,10p,2d,1f) -> [4s,3p,2d,1f]
Options
OrbitalEnergies
EndOptions
         11.   3
* S-type functions
   16    5
  423000.00000000
   63340.00000000
   14410.00000000
    4077.00000000
    1328.00000000
     478.60000000
     186.20000000
      76.92000000
      33.32000000
      15.00000000
       6.86900000
       2.68300000
       1.10900000
       0.45400000
       0.06015000
       0.02382000
  0.00001806 -0.00000441  0.00000066  0.00000000  0.00000000
  0.00014043 -0.00003434  0.00000516  0.00000000  0.00000000
  0.00073844 -0.00018011  0.00002713  0.00000000  0.00000000
  0.00311182 -0.00076390  0.00011464  0.00000000  0.00000000
  0.01120810 -0.00275248  0.00041512  0.00000000  0.00000000
  0.03528280 -0.00886016  0.00132978  0.00000000  0.00000000
  0.09598970 -0.02479390  0.00375595  0.00000000  0.00000000
  0.21373500 -0.06059950  0.00914025  0.00000000  0.00000000
  0.34868800 -0.11644600  0.01798590  0.00000000  0.00000000
  0.32456600 -0.16243700  0.02514770  0.00000000  0.00000000
  0.11263300 -0.04388910  0.00763522  0.00000000  0.00000000
  0.00706797  0.33791700 -0.06145890  0.00000000  0.00000000
  0.00059801  0.56134700 -0.11572100  0.00000000  0.00000000
  0.00020413  0.24524000 -0.15890600  1.00000000  0.00000000
 -0.00000531  0.00406754  0.62640600  0.00000000  0.00000000
  0.00000183 -0.00126746  0.47540200  0.00000000  1.00000000
 3
 -40.47850  -2.79702  -0.18210
* P-type functions
   10    4
     243.30000000
      57.39000000
      18.10000000
       6.57500000
       2.52100000
       0.96070000
       0.35120000
       0.09827000
       0.03734000
       0.01500000
  0.00224392 -0.00022240  0.00000000  0.00000000
  0.01739970 -0.00174277  0.00000000  0.00000000
  0.07741250 -0.00775456  0.00000000  0.00000000
  0.21910200 -0.02251870  0.00000000  0.00000000
  0.37852200 -0.03843300  0.00000000  0.00000000
  0.39490200 -0.04501770  0.00000000  0.00000000
  0.16042400 -0.01921320  0.00000000  0.00000000
  0.00233311  0.18269700  0.00000000  0.00000000
  0.00199536  0.55789700  1.00000000  0.00000000
 -0.00077734  0.37302200  0.00000000  1.00000000
 1
 -1.51814
* D-type functions
    2    2
       0.13670000
       0.06360000
  1.00000000  0.00000000
  0.00000000  1.00000000
 0
* F-type functions
    1    1
       0.13970000
  1.00000000
 0
/Mg.cc-pVTZ.Dunning.15s10p2d1f.5s4p2d1f..
D.E. Woon and T.H. Dunning, Jr.  (to be published)
MAGNESIUM    (15s,10p,2d,1f) -> [5s,4p,2d,1f]
Options
OrbitalEnergies
EndOptions
         12.   3
* S-type functions
   15    5
  164900.00000000
   24710.00000000
    5628.00000000
    1596.00000000
     521.00000000
     188.00000000
      73.01000000
      29.90000000
      12.54000000
       4.30600000
       1.82600000
       0.74170000
       0.14570000
       0.07612000
       0.03310000
  0.00007299 -0.00001842  0.00000355  0.00000000  0.00000000
  0.00056665 -0.00014350  0.00002764  0.00000000  0.00000000
  0.00296269 -0.00074871  0.00014440  0.00000000  0.00000000
  0.01229620 -0.00314407  0.00060574  0.00000000  0.00000000
  0.04273240 -0.01104810  0.00213527  0.00000000  0.00000000
  0.12301300 -0.03360580  0.00649934  0.00000000  0.00000000
  0.27483200 -0.08259460  0.01614460  0.00000000  0.00000000
  0.40181800 -0.15931400  0.03157660  0.00000000  0.00000000
  0.26469700 -0.15288800  0.03163740  0.00000000  0.00000000
  0.03326120  0.19084900 -0.04391400  0.00000000  0.00000000
 -0.00441335  0.57996400 -0.15109300  0.00000000  0.00000000
  0.00206024  0.37202900 -0.21766800  0.00000000  0.00000000
 -0.00083847  0.02116910  0.25980700  1.00000000  0.00000000
  0.00070820 -0.01193440  0.54724500  0.00000000  0.00000000
 -0.00020060  0.00277329  0.32591000  0.00000000  1.00000000
 3
 -49.03160  -3.76760  -0.25300
* P-type functions
   10    4
     316.90000000
      74.86000000
      23.72000000
       8.66900000
       3.36300000
       1.31000000
       0.49110000
       0.23640000
       0.08733000
       0.03237000
  0.00207532 -0.00032973  0.00000000  0.00000000
  0.01628690 -0.00258754  0.00000000  0.00000000
  0.07386970 -0.01191200  0.00000000  0.00000000
  0.21429700 -0.03502270  0.00000000  0.00000000
  0.38215400 -0.06399680  0.00000000  0.00000000
  0.39817800 -0.07044360  0.00000000  0.00000000
  0.15287800 -0.03758360  0.00000000  0.00000000
 -0.00437540  0.17704300  0.00000000  0.00000000
  0.00629582  0.56670700  1.00000000  0.00000000
 -0.00156769  0.39614300  0.00000000  1.00000000
 1
 -2.28211
* D-type functions
    2    2
       0.12600000
       0.29400000
  1.00000000  0.00000000
  0.00000000  1.00000000
 0
* F-type functions
    1    1
       0.25200000
  1.00000000
 0
/Al.cc-pVTZ.Dunning.15s9p2d1f.5s4p2d1f..
D.E. Woon and T.H. Dunning, Jr.  J. Chem. Phys. 98, 1358 (1993).
ALUMINUM     (15s,9p,2d,1f) -> [5s,4p,2d,1f]
Options
OrbitalEnergies
EndOptions
         13.   3
* S-type functions
   15    5
  205500.00000000
   30780.00000000
    7006.00000000
    1985.00000000
     649.10000000
     235.00000000
      91.62000000
      37.67000000
      15.91000000
       5.85000000
       2.54200000
       1.05700000
       0.29310000
       0.14550000
       0.05650000
  0.00006788 -0.00001764  0.00000407  0.00000000  0.00000000
  0.00052715 -0.00013720  0.00003166  0.00000000  0.00000000
  0.00276203 -0.00071891  0.00016612  0.00000000  0.00000000
  0.01147280 -0.00301146  0.00069499  0.00000000  0.00000000
  0.03981880 -0.01060140  0.00245511  0.00000000  0.00000000
  0.11504000 -0.03213450  0.00744598  0.00000000  0.00000000
  0.26088700 -0.08031560  0.01882530  0.00000000  0.00000000
  0.39638600 -0.15679400  0.03727720  0.00000000  0.00000000
  0.28459700 -0.16837600  0.04194960  0.00000000  0.00000000
  0.04445830  0.12687900 -0.03543750  0.00000000  0.00000000
 -0.00489838  0.56149400 -0.17513200  0.00000000  0.00000000
  0.00261253  0.43661300 -0.27620300  0.00000000  0.00000000
 -0.00108915  0.03572930  0.10872900  1.00000000  0.00000000
  0.00072207 -0.01145630  0.65280900  0.00000000  0.00000000
 -0.00017849  0.00220201  0.39458700  0.00000000  1.00000000
 3
 -58.50105  -4.91069  -0.39430
* P-type functions
    9    4
     444.40000000
     105.10000000
      33.47000000
      12.33000000
       4.86900000
       1.96100000
       0.78340000
       0.18880000
       0.05557000
  0.00162786 -0.00028634  0.00000000  0.00000000
  0.01306870 -0.00242308  0.00000000  0.00000000
  0.06123410 -0.01086580  0.00000000  0.00000000
  0.18787000 -0.03643070  0.00000000  0.00000000
  0.36045200 -0.06410740  0.00000000  0.00000000
  0.40845400 -0.09722390  0.00000000  0.00000000
  0.18864000  0.01474370  1.00000000  0.00000000
  0.00976514  0.50344800  0.00000000  0.00000000
 -0.00115057  0.59798400  0.00000000  1.00000000
 2
 -3.21834  -0.21002
* D-type functions
    2    2
       0.10900000
       0.33300000
  1.00000000  0.00000000
  0.00000000  1.00000000
 0
* F-type functions
    1    1
       0.24400000
  1.00000000
 0
/Si.cc-pVTZ.Dunning.15s9p2d1f.5s4p2d1f..
D.E. Woon and T.H. Dunning, Jr.  J. Chem. Phys. 98, 1358 (1993).
SILICON      (15s,9p,2d,1f) -> [5s,4p,2d,1f]
Options
OrbitalEnergies
EndOptions
         14.   3
* S-type functions
   15    5
  254900.00000000
   38190.00000000
    8690.00000000
    2462.00000000
     804.80000000
     291.30000000
     113.60000000
      46.75000000
      19.82000000
       7.70800000
       3.34000000
       1.40200000
       0.43870000
       0.20700000
       0.07944000
  0.00006251 -0.00001664  0.00000426  0.00000000  0.00000000
  0.00048555 -0.00012931  0.00003311  0.00000000  0.00000000
  0.00254516 -0.00067883  0.00017402  0.00000000  0.00000000
  0.01058660 -0.00284117  0.00072757  0.00000000  0.00000000
  0.03687870 -0.01005510  0.00258333  0.00000000  0.00000000
  0.10747900 -0.03057740  0.00786354  0.00000000  0.00000000
  0.24793600 -0.07772560  0.02021550  0.00000000  0.00000000
  0.39092700 -0.15423600  0.04073200  0.00000000  0.00000000
  0.30202600 -0.18036800  0.04993580  0.00000000  0.00000000
  0.05592360  0.07982180 -0.02493960  0.00000000  0.00000000
 -0.00402406  0.54744100 -0.19035000  0.00000000  0.00000000
  0.00258030  0.48011900 -0.31835000  0.00000000  0.00000000
 -0.00103821  0.04748460  0.09480360  1.00000000  0.00000000
  0.00060793 -0.01069960  0.68118000  0.00000000  0.00000000
 -0.00015402  0.00219871  0.39567200  0.00000000  1.00000000
 3
 -68.81239  -6.15647  -0.53978
* P-type functions
    9    4
     481.50000000
     113.90000000
      36.23000000
      13.34000000
       5.25200000
       2.12000000
       0.85610000
       0.25280000
       0.07889000
  0.00192045 -0.00040522  0.00000000  0.00000000
  0.01535520 -0.00335896  0.00000000  0.00000000
  0.07139910 -0.01528600  0.00000000  0.00000000
  0.21305200 -0.04892180  0.00000000  0.00000000
  0.39035400 -0.08550080  0.00000000  0.00000000
  0.39372100 -0.11213700  0.00000000  0.00000000
  0.13256500  0.06182740  1.00000000  0.00000000
  0.00395630  0.55191900  0.00000000  0.00000000
  0.00033162  0.52349200  0.00000000  1.00000000
 2
 -4.25598  -0.29703
* D-type functions
    2    2
       0.15900000
       0.48100000
  1.00000000  0.00000000
  0.00000000  1.00000000
 0
* F-type functions
    1    1
       0.33600000
  1.00000000
 0
/P.cc-pVTZ.Dunning.15s9p2d1f.5s4p2d1f..
D.E. Woon and T.H. Dunning, Jr.  J. Chem. Phys. 98, 1358 (1993).
PHOSPHORUS   (15s,9p,2d,1f) -> [5s,4p,2d,1f]
Options
OrbitalEnergies
EndOptions
         15.   3
* S-type functions
   15    5
  312400.00000000
   46800.00000000
   10650.00000000
    3018.00000000
     986.80000000
     357.40000000
     139.60000000
      57.63000000
      24.60000000
      10.12000000
       4.28300000
       1.80500000
       0.61580000
       0.27820000
       0.10550000
  0.00005770 -0.00001567  0.00000431  0.00000000  0.00000000
  0.00044830 -0.00012172  0.00003342  0.00000000  0.00000000
  0.00234939 -0.00063967  0.00017589  0.00000000  0.00000000
  0.00978265 -0.00267426  0.00073434  0.00000000  0.00000000
  0.03414670 -0.00949831  0.00261775  0.00000000  0.00000000
  0.10020400 -0.02893490  0.00797852  0.00000000  0.00000000
  0.23437200 -0.07451210  0.02079400  0.00000000  0.00000000
  0.38243400 -0.14993800  0.04244460  0.00000000  0.00000000
  0.31808800 -0.18946700  0.05634360  0.00000000  0.00000000
  0.07077880  0.03632700 -0.01273580  0.00000000  0.00000000
 -0.00181799  0.52881600 -0.19649500  0.00000000  0.00000000
  0.00216180  0.51911500 -0.35355500  0.00000000  0.00000000
 -0.00083474  0.06055470  0.07414070  1.00000000  0.00000000
  0.00043230 -0.00925695  0.70091200  0.00000000  0.00000000
 -0.00011425  0.00210372  0.40473900  0.00000000  1.00000000
 3
 -79.96965  -7.51102  -0.69636
* P-type functions
    9    4
     504.90000000
     119.40000000
      37.96000000
      13.95000000
       5.45700000
       2.17700000
       0.80100000
       0.28770000
       0.09714000
  0.00233728 -0.00055524  0.00000000  0.00000000
  0.01854100 -0.00445913  0.00000000  0.00000000
  0.08496930 -0.02063500  0.00000000  0.00000000
  0.24461500 -0.06176940  0.00000000  0.00000000
  0.42276600 -0.10892400  0.00000000  0.00000000
  0.36843900 -0.10559900  0.00000000  0.00000000
  0.07727340  0.15348300  1.00000000  0.00000000
 -0.00379005  0.57698100  0.00000000  0.00000000
  0.00159939  0.42243900  0.00000000  1.00000000
 2
 -5.40088  -0.39161
* D-type functions
    2    2
       0.21600000
       0.65200000
  1.00000000  0.00000000
  0.00000000  1.00000000
 0
* F-type functions
    1    1
       0.45200000
  1.00000000
 0
/S.cc-pVTZ.Dunning.15s9p2d1f.5s4p2d1f..
D.E. Woon and T.H. Dunning, Jr.  J. Chem. Phys. 98, 1358 (1993).
SULFUR       (15s,9p,2d,1f) -> [5s,4p,2d,1f]
Options
OrbitalEnergies
EndOptions
         16.   3
* S-type functions
   15    5
  374100.00000000
   56050.00000000
   12760.00000000
    3615.00000000
    1183.00000000
     428.80000000
     167.80000000
      69.47000000
      29.84000000
      12.72000000
       5.24400000
       2.21900000
       0.77670000
       0.34900000
       0.13220000
  0.00005421 -0.00001498  0.00000435  0.00000000  0.00000000
  0.00042086 -0.00011620  0.00003371  0.00000000  0.00000000
  0.00220698 -0.00061158  0.00017767  0.00000000  0.00000000
  0.00919258 -0.00255370  0.00074112  0.00000000  0.00000000
  0.03211230 -0.00908708  0.00264591  0.00000000  0.00000000
  0.09466830 -0.02770450  0.00807487  0.00000000  0.00000000
  0.22363000 -0.07200200  0.02122760  0.00000000  0.00000000
  0.37439300 -0.14643900  0.04383230  0.00000000  0.00000000
  0.32910800 -0.19515000  0.06127160  0.00000000  0.00000000
  0.08470380  0.00819193 -0.00361510  0.00000000  0.00000000
  0.00044085  0.51660100 -0.20451000  0.00000000  0.00000000
  0.00164827  0.54217800 -0.38187100  0.00000000  0.00000000
 -0.00062233  0.06884300  0.08268440  1.00000000  0.00000000
  0.00030131 -0.00918072  0.71414700  0.00000000  0.00000000
 -0.00008413  0.00226832  0.39379100  0.00000000  1.00000000
 3
 -92.00447  -9.00431  -0.87955
* P-type functions
    9    4
     574.40000000
     135.80000000
      43.19000000
      15.87000000
       6.20800000
       2.48300000
       0.86880000
       0.32290000
       0.10980000
  0.00242264 -0.00062010  0.00000000  0.00000000
  0.01927960 -0.00493882  0.00000000  0.00000000
  0.08854010 -0.02326470  0.00000000  0.00000000
  0.25465400 -0.06851950  0.00000000  0.00000000
  0.43398400 -0.12389600  0.00000000  0.00000000
  0.35495300 -0.09694990  0.00000000  0.00000000
  0.06189410  0.22821500  1.00000000  0.00000000
 -0.00502977  0.56939400  0.00000000  0.00000000
  0.00209813  0.36630200  0.00000000  1.00000000
 2
 -6.68253  -0.43737
* D-type functions
    2    2
       0.26900000
       0.81900000
  1.00000000  0.00000000
  0.00000000  1.00000000
 0
* F-type functions
    1    1
       0.55700000
  1.00000000
 0
/Cl.cc-pVTZ.Dunning.15s9p2d1f.5s4p2d1f..
D.E. Woon and T.H. Dunning, Jr.  J. Chem. Phys. 98, 1358 (1993).
CHLORINE     (15s,9p,2d,1f) -> [5s,4p,2d,1f]
Options
OrbitalEnergies
EndOptions
         17.   3
* S-type functions
   15    5
  456100.00000000
   68330.00000000
   15550.00000000
    4405.00000000
    1439.00000000
     520.40000000
     203.10000000
      83.96000000
      36.20000000
      15.83000000
       6.33400000
       2.69400000
       0.97680000
       0.43130000
       0.16250000
  0.00004930 -0.00001383  0.00000419  0.00000000  0.00000000
  0.00038303 -0.00010728  0.00003244  0.00000000  0.00000000
  0.00200854 -0.00056508  0.00017111  0.00000000  0.00000000
  0.00838558 -0.00236135  0.00071418  0.00000000  0.00000000
  0.02947030 -0.00845886  0.00256705  0.00000000  0.00000000
  0.08783250 -0.02596380  0.00788552  0.00000000  0.00000000
  0.21147300 -0.06863620  0.02108670  0.00000000  0.00000000
  0.36536400 -0.14187400  0.04422640  0.00000000  0.00000000
  0.34088400 -0.19931900  0.06516700  0.00000000  0.00000000
  0.10213300 -0.01956620  0.00603012  0.00000000  0.00000000
  0.00311675  0.49974100 -0.20649500  0.00000000  0.00000000
  0.00105751  0.56373600 -0.40587100  0.00000000  0.00000000
 -0.00037800  0.07903250  0.07595580  1.00000000  0.00000000
  0.00015614 -0.00835091  0.72566100  0.00000000  0.00000000
 -0.00005141  0.00232456  0.39442300  0.00000000  1.00000000
 3
 -104.88469 -10.60777  -1.07311
* P-type functions
    9    4
     663.30000000
     156.80000000
      49.98000000
      18.42000000
       7.24000000
       2.92200000
       1.02200000
       0.38180000
       0.13010000
  0.00240448 -0.00065215  0.00000000  0.00000000
  0.01921480 -0.00519445  0.00000000  0.00000000
  0.08850970 -0.02469380  0.00000000  0.00000000
  0.25602000 -0.07281670  0.00000000  0.00000000
  0.43692700 -0.13403000  0.00000000  0.00000000
  0.35033400 -0.09477420  0.00000000  0.00000000
  0.05854950  0.26228900  1.00000000  0.00000000
 -0.00458423  0.56466700  0.00000000  0.00000000
  0.00226970  0.34125000  0.00000000  1.00000000
 2
 -8.07252  -0.50652
* D-type functions
    2    2
       1.04600000
       0.34400000
  1.00000000  0.00000000
  0.00000000  1.00000000
 0
* F-type functions
    1    1
       0.70600000
  1.00000000
 0
/Ar.cc-pVTZ.Dunning.15s9p2d1f.5s4p2d1f..
D.E. Woon and T.H. Dunning, Jr.  J. Chem. Phys. 98, 1358 (1993).
ARGON        (15s,9p,2d,1f) -> [5s,4p,2d,1f]
Options
OrbitalEnergies
EndOptions
         18.   3
* S-type functions
   15    5
  545000.00000000
   81640.00000000
   18580.00000000
    5261.00000000
    1717.00000000
     619.90000000
     241.60000000
      99.79000000
      43.15000000
      19.14000000
       7.48800000
       3.20500000
       1.19600000
       0.52040000
       0.19540000
  0.00004558 -0.00001296  0.00000405  0.00000000  0.00000000
  0.00035411 -0.00010043  0.00003137  0.00000000  0.00000000
  0.00185797 -0.00052958  0.00016565  0.00000000  0.00000000
  0.00776851 -0.00221396  0.00069166  0.00000000  0.00000000
  0.02742320 -0.00796845  0.00249790  0.00000000  0.00000000
  0.08238360 -0.02458030  0.00771074  0.00000000  0.00000000
  0.20123000 -0.06577980  0.02087140  0.00000000  0.00000000
  0.35678100 -0.13794200  0.04439650  0.00000000  0.00000000
  0.34956300 -0.20163000  0.06802240  0.00000000  0.00000000
  0.11826600 -0.04128340  0.01413500  0.00000000  0.00000000
  0.00560190  0.48468000 -0.20748900  0.00000000  0.00000000
  0.00048347  0.57922400 -0.42504500  0.00000000  0.00000000
 -0.00014809  0.08790830  0.07048550  1.00000000  0.00000000
  0.00002920 -0.00727553  0.73362700  0.00000000  0.00000000
 -0.00002316  0.00232884  0.39600500  0.00000000  1.00000000
 3
 -118.61039 -12.32219  -1.27735
* P-type functions
    9    4
     761.80000000
     180.20000000
      57.50000000
      21.24000000
       8.38800000
       3.41600000
       1.20600000
       0.45230000
       0.15450000
  0.00236976 -0.00066721  0.00000000  0.00000000
  0.01901990 -0.00532717  0.00000000  0.00000000
  0.08808070 -0.02554940  0.00000000  0.00000000
  0.25637700 -0.07571970  0.00000000  0.00000000
  0.43871100 -0.14113300  0.00000000  0.00000000
  0.34756900 -0.09327680  0.00000000  0.00000000
  0.05667400  0.28287200  1.00000000  0.00000000
 -0.00523882  0.56245000  0.00000000  0.00000000
  0.00164376  0.32505900  0.00000000  1.00000000
 2
 -9.57150  -0.59102
* D-type functions
    2    2
       0.41000000
       1.25400000
  1.00000000  0.00000000
  0.00000000  1.00000000
 0
* F-type functions
    1    1
       0.89000000
  1.00000000
 0
