************************************************************************
* This file is part of OpenMolcas.                                     *
*                                                                      *
* OpenMolcas is free software; you can redistribute it and/or modify   *
* it under the terms of the GNU Lesser General Public License, v. 2.1. *
* OpenMolcas is distributed in the hope that it will be useful, but it *
* is provided "as is" and without any express or implied warranties.   *
* For more details see the full text of the license in the file        *
* LICENSE or in <http://www.gnu.org/licenses/>.                        *
************************************************************************

#Hamiltonian DKH
#Nucleus UNK
#Contraction CCC
#AllElectron AE_

************************************************************************
* This file has been generated from Basis Set Exchange data:           *
*   https://www.basissetexchange.org                                   *
* Version: 0  (Data from the Original Basis Set Exchange)              *
************************************************************************

/H.cc-pVQZ-DK.de_Jong.6s3p2d1f.4s3p2d1f.
W.A. de Jong, R.J. Harrison, D.A. Dixon. J. Chem. Phys. 114 (2001) 48. doi:10.1063/1.1329891
HYDROGEN (6s,3p,2d,1f) -> [4s,3p,2d,1f]
     1.0   3
* s-type functions
    6    4
         82.64000000
         12.41000000
          2.82400000
          0.79770000
          0.25810000
          0.08989000
  0.0020131000  0.0000000000  0.0000000000  0.0000000000
  0.0153499000  0.0000000000  0.0000000000  0.0000000000
  0.0755920000  0.0000000000  0.0000000000  0.0000000000
  0.2568657000  1.0000000000  0.0000000000  0.0000000000
  0.4973715000  0.0000000000  1.0000000000  0.0000000000
  0.2961277000  0.0000000000  0.0000000000  1.0000000000
* p-type functions
    3    3
          2.29200000
          0.83800000
          0.29200000
  1.0000000000  0.0000000000  0.0000000000
  0.0000000000  1.0000000000  0.0000000000
  0.0000000000  0.0000000000  1.0000000000
* d-type functions
    2    2
          2.06200000
          0.66200000
  1.0000000000  0.0000000000
  0.0000000000  1.0000000000
* f-type functions
    1    1
          1.39700000
  1.0000000000

/He.cc-pVQZ-DK.de_Jong.7s3p2d1f.4s3p2d1f.
W.A. de Jong, R.J. Harrison, D.A. Dixon. J. Chem. Phys. 114 (2001) 48. doi:10.1063/1.1329891
HELIUM (7s,3p,2d,1f) -> [4s,3p,2d,1f]
     2.0   3
* s-type functions
    7    4
        528.50000000
         79.31000000
         18.05000000
          5.08500000
          1.60900000
          0.53630000
          0.18330000
  0.0009592000  0.0000000000  0.0000000000  0.0000000000
  0.0072329000  0.0000000000  0.0000000000  0.0000000000
  0.0360060000  0.0000000000  0.0000000000  0.0000000000
  0.1278065000  0.0000000000  0.0000000000  0.0000000000
  0.3084775000  1.0000000000  0.0000000000  0.0000000000
  0.4530142000  0.0000000000  1.0000000000  0.0000000000
  0.2388810000  0.0000000000  0.0000000000  1.0000000000
* p-type functions
    3    3
          5.99400000
          1.74500000
          0.56000000
  1.0000000000  0.0000000000  0.0000000000
  0.0000000000  1.0000000000  0.0000000000
  0.0000000000  0.0000000000  1.0000000000
* d-type functions
    2    2
          4.29900000
          1.22300000
  1.0000000000  0.0000000000
  0.0000000000  1.0000000000
* f-type functions
    1    1
          2.68000000
  1.0000000000

/Li.cc-pVQZ-DK.de_Jong.12s6p3d2f1g.5s4p3d2f1g.
W.A. de Jong, R.J. Harrison, D.A. Dixon. J. Chem. Phys. 114 (2001) 48. doi:10.1063/1.1329891
LITHIUM (12s,6p,3d,2f,1g) -> [5s,4p,3d,2f,1g]
     3.0   4
* s-type functions
   12    5
       6601.00000000
        989.70000000
        225.70000000
         64.29000000
         21.18000000
          7.72400000
          3.00300000
          1.21200000
          0.49300000
          0.09515000
          0.04791000
          0.02220000
  0.0001428000 -0.0000223000  0.0000000000  0.0000000000  0.0000000000
  0.0009372000 -0.0001464000  0.0000000000  0.0000000000  0.0000000000
  0.0047683000 -0.0007479000  0.0000000000  0.0000000000  0.0000000000
  0.0192504000 -0.0030295000  0.0000000000  0.0000000000  0.0000000000
  0.0631135000 -0.0101354000  0.0000000000  0.0000000000  0.0000000000
  0.1632570000 -0.0271075000  0.0000000000  0.0000000000  0.0000000000
  0.3148261000 -0.0573626000  0.0000000000  0.0000000000  0.0000000000
  0.3938785000 -0.0939079000  0.0000000000  0.0000000000  0.0000000000
  0.1968621000 -0.1210364000  0.0000000000  0.0000000000  0.0000000000
  0.0100033000  0.2767342000  1.0000000000  0.0000000000  0.0000000000
 -0.0054080000  0.5494749000  0.0000000000  1.0000000000  0.0000000000
  0.0017064000  0.2773275000  0.0000000000  0.0000000000  1.0000000000
* p-type functions
    6    4
          6.25000000
          1.37000000
          0.36720000
          0.11920000
          0.04474000
          0.01795000
  0.0033908000  0.0000000000  0.0000000000  0.0000000000
  0.0193161000  0.0000000000  0.0000000000  0.0000000000
  0.0791011000  0.0000000000  0.0000000000  0.0000000000
  0.2740942000  1.0000000000  0.0000000000  0.0000000000
  0.5194890000  0.0000000000  1.0000000000  0.0000000000
  0.2844244000  0.0000000000  0.0000000000  1.0000000000
* d-type functions
    3    3
          0.34400000
          0.15300000
          0.06800000
  1.0000000000  0.0000000000  0.0000000000
  0.0000000000  1.0000000000  0.0000000000
  0.0000000000  0.0000000000  1.0000000000
* f-type functions
    2    2
          0.24600000
          0.12920000
  1.0000000000  0.0000000000
  0.0000000000  1.0000000000
* g-type functions
    1    1
          0.23800000
  1.0000000000

/Be.cc-pVQZ-DK.de_Jong.12s6p3d2f1g.5s4p3d2f1g.
W.A. de Jong, R.J. Harrison, D.A. Dixon. J. Chem. Phys. 114 (2001) 48. doi:10.1063/1.1329891
BERYLLIUM (12s,6p,3d,2f,1g) -> [5s,4p,3d,2f,1g]
     4.0   4
* s-type functions
   12    5
      14630.00000000
       2191.00000000
        498.20000000
        140.90000000
         45.86000000
         16.47000000
          6.31900000
          2.53500000
          1.03500000
          0.25280000
          0.10520000
          0.04261000
  0.0001304000 -0.0000237000  0.0000000000  0.0000000000  0.0000000000
  0.0007604000 -0.0001391000  0.0000000000  0.0000000000  0.0000000000
  0.0038026000 -0.0006922000  0.0000000000  0.0000000000  0.0000000000
  0.0155612000 -0.0028756000  0.0000000000  0.0000000000  0.0000000000
  0.0529953000 -0.0098388000  0.0000000000  0.0000000000  0.0000000000
  0.1458045000 -0.0286430000  0.0000000000  0.0000000000  0.0000000000
  0.3027037000 -0.0637779000  0.0000000000  0.0000000000  0.0000000000
  0.4048329000 -0.1172570000  0.0000000000  0.0000000000  0.0000000000
  0.2222552000 -0.1210701000  0.0000000000  0.0000000000  0.0000000000
  0.0129245000  0.2534055000  1.0000000000  0.0000000000  0.0000000000
 -0.0046592000  0.5817609000  0.0000000000  1.0000000000  0.0000000000
  0.0012318000  0.2918369000  0.0000000000  0.0000000000  1.0000000000
* p-type functions
    6    4
         14.03000000
          3.16800000
          0.90240000
          0.30360000
          0.11300000
          0.04286000
  0.0041084000  0.0000000000  0.0000000000  0.0000000000
  0.0256337000  0.0000000000  0.0000000000  0.0000000000
  0.1037812000  0.0000000000  0.0000000000  0.0000000000
  0.3115481000  1.0000000000  0.0000000000  0.0000000000
  0.4980838000  0.0000000000  1.0000000000  0.0000000000
  0.2589194000  0.0000000000  0.0000000000  1.0000000000
* d-type functions
    3    3
          1.07200000
          0.44100000
          0.18110000
  1.0000000000  0.0000000000  0.0000000000
  0.0000000000  1.0000000000  0.0000000000
  0.0000000000  0.0000000000  1.0000000000
* f-type functions
    2    2
          0.48100000
          0.25500000
  1.0000000000  0.0000000000
  0.0000000000  1.0000000000
* g-type functions
    1    1
          0.41500000
  1.0000000000

/B.cc-pVQZ-DK.de_Jong.12s6p3d2f1g.5s4p3d2f1g.
W.A. de Jong, R.J. Harrison, D.A. Dixon. J. Chem. Phys. 114 (2001) 48. doi:10.1063/1.1329891
BORON (12s,6p,3d,2f,1g) -> [5s,4p,3d,2f,1g]
     5.0   4
* s-type functions
   12    5
      23870.00000000
       3575.00000000
        812.80000000
        229.70000000
         74.69000000
         26.81000000
         10.32000000
          4.17800000
          1.72700000
          0.47040000
          0.18960000
          0.07394000
  0.0001428000 -0.0000288000  0.0000000000  0.0000000000  0.0000000000
  0.0007616000 -0.0001545000  0.0000000000  0.0000000000  0.0000000000
  0.0037058000 -0.0007473000  0.0000000000  0.0000000000  0.0000000000
  0.0150963000 -0.0030957000  0.0000000000  0.0000000000  0.0000000000
  0.0516294000 -0.0106287000  0.0000000000  0.0000000000  0.0000000000
  0.1434860000 -0.0314278000  0.0000000000  0.0000000000  0.0000000000
  0.3009872000 -0.0710579000  0.0000000000  0.0000000000  0.0000000000
  0.4033443000 -0.1321386000  0.0000000000  0.0000000000  0.0000000000
  0.2251446000 -0.1228547000  0.0000000000  0.0000000000  0.0000000000
  0.0153851000  0.2621830000  1.0000000000  0.0000000000  0.0000000000
 -0.0039460000  0.5865570000  0.0000000000  1.0000000000  0.0000000000
  0.0011212000  0.2902123000  0.0000000000  0.0000000000  1.0000000000
* p-type functions
    6    4
         22.26000000
          5.05800000
          1.48700000
          0.50710000
          0.18120000
          0.06463000
  0.0051124000  0.0000000000  0.0000000000  0.0000000000
  0.0332200000  0.0000000000  0.0000000000  0.0000000000
  0.1323136000  0.0000000000  0.0000000000  0.0000000000
  0.3317357000  1.0000000000  0.0000000000  0.0000000000
  0.4720299000  0.0000000000  1.0000000000  0.0000000000
  0.2581142000  0.0000000000  0.0000000000  1.0000000000
* d-type functions
    3    3
          1.11000000
          0.40200000
          0.14500000
  1.0000000000  0.0000000000  0.0000000000
  0.0000000000  1.0000000000  0.0000000000
  0.0000000000  0.0000000000  1.0000000000
* f-type functions
    2    2
          0.88200000
          0.31100000
  1.0000000000  0.0000000000
  0.0000000000  1.0000000000
* g-type functions
    1    1
          0.67300000
  1.0000000000

/C.cc-pVQZ-DK.de_Jong.12s6p3d2f1g.5s4p3d2f1g.
W.A. de Jong, R.J. Harrison, D.A. Dixon. J. Chem. Phys. 114 (2001) 48. doi:10.1063/1.1329891
CARBON (12s,6p,3d,2f,1g) -> [5s,4p,3d,2f,1g]
     6.0   4
* s-type functions
   12    5
      33980.00000000
       5089.00000000
       1157.00000000
        326.60000000
        106.10000000
         38.11000000
         14.75000000
          6.03500000
          2.53000000
          0.73550000
          0.29050000
          0.11110000
  0.0001631000 -0.0000347000  0.0000000000  0.0000000000  0.0000000000
  0.0008131000 -0.0001740000  0.0000000000  0.0000000000  0.0000000000
  0.0038480000 -0.0008193000  0.0000000000  0.0000000000  0.0000000000
  0.0155770000 -0.0033743000  0.0000000000  0.0000000000  0.0000000000
  0.0532169000 -0.0115871000  0.0000000000  0.0000000000  0.0000000000
  0.1473186000 -0.0342621000  0.0000000000  0.0000000000  0.0000000000
  0.3057064000 -0.0772516000  0.0000000000  0.0000000000  0.0000000000
  0.3990689000 -0.1415421000  0.0000000000  0.0000000000  0.0000000000
  0.2167636000 -0.1176683000  0.0000000000  0.0000000000  0.0000000000
  0.0158597000  0.2743503000  1.0000000000  0.0000000000  0.0000000000
 -0.0030715000  0.5863662000  0.0000000000  1.0000000000  0.0000000000
  0.0009736000  0.2849772000  0.0000000000  0.0000000000  1.0000000000
* p-type functions
    6    4
         34.51000000
          7.91500000
          2.36800000
          0.81320000
          0.28900000
          0.10070000
  0.0054084000  0.0000000000  0.0000000000  0.0000000000
  0.0361681000  0.0000000000  0.0000000000  0.0000000000
  0.1425195000  0.0000000000  0.0000000000  0.0000000000
  0.3420996000  1.0000000000  0.0000000000  0.0000000000
  0.4637957000  0.0000000000  1.0000000000  0.0000000000
  0.2501421000  0.0000000000  0.0000000000  1.0000000000
* d-type functions
    3    3
          1.84800000
          0.64900000
          0.22800000
  1.0000000000  0.0000000000  0.0000000000
  0.0000000000  1.0000000000  0.0000000000
  0.0000000000  0.0000000000  1.0000000000
* f-type functions
    2    2
          1.41900000
          0.48500000
  1.0000000000  0.0000000000
  0.0000000000  1.0000000000
* g-type functions
    1    1
          1.01100000
  1.0000000000

/N.cc-pVQZ-DK.de_Jong.12s6p3d2f1g.5s4p3d2f1g.
W.A. de Jong, R.J. Harrison, D.A. Dixon. J. Chem. Phys. 114 (2001) 48. doi:10.1063/1.1329891
NITROGEN (12s,6p,3d,2f,1g) -> [5s,4p,3d,2f,1g]
     7.0   4
* s-type functions
   12    5
      45840.00000000
       6868.00000000
       1563.00000000
        442.40000000
        144.30000000
         52.18000000
         20.34000000
          8.38100000
          3.52900000
          1.05400000
          0.41180000
          0.15520000
  0.0001837000 -0.0000405000  0.0000000000  0.0000000000  0.0000000000
  0.0008652000 -0.0001916000  0.0000000000  0.0000000000  0.0000000000
  0.0039619000 -0.0008729000  0.0000000000  0.0000000000  0.0000000000
  0.0158295000 -0.0035503000  0.0000000000  0.0000000000  0.0000000000
  0.0535430000 -0.0120742000  0.0000000000  0.0000000000  0.0000000000
  0.1471714000 -0.0355377000  0.0000000000  0.0000000000  0.0000000000
  0.3047729000 -0.0801985000  0.0000000000  0.0000000000  0.0000000000
  0.3973010000 -0.1467880000  0.0000000000  0.0000000000  0.0000000000
  0.2172331000 -0.1158517000  0.0000000000  0.0000000000  0.0000000000
  0.0169207000  0.2806950000  1.0000000000  0.0000000000  0.0000000000
 -0.0027374000  0.5852820000  0.0000000000  1.0000000000  0.0000000000
  0.0009505000  0.2833699000  0.0000000000  0.0000000000  1.0000000000
* p-type functions
    6    4
         49.33000000
         11.37000000
          3.43500000
          1.18200000
          0.41730000
          0.14280000
  0.0055788000  0.0000000000  0.0000000000  0.0000000000
  0.0380245000  0.0000000000  0.0000000000  0.0000000000
  0.1490854000  0.0000000000  0.0000000000  0.0000000000
  0.3488746000  1.0000000000  0.0000000000  0.0000000000
  0.4588768000  0.0000000000  1.0000000000  0.0000000000
  0.2450315000  0.0000000000  0.0000000000  1.0000000000
* d-type functions
    3    3
          2.83700000
          0.96800000
          0.33500000
  1.0000000000  0.0000000000  0.0000000000
  0.0000000000  1.0000000000  0.0000000000
  0.0000000000  0.0000000000  1.0000000000
* f-type functions
    2    2
          2.02700000
          0.68500000
  1.0000000000  0.0000000000
  0.0000000000  1.0000000000
* g-type functions
    1    1
          1.42700000
  1.0000000000

/O.cc-pVQZ-DK.de_Jong.12s6p3d2f1g.5s4p3d2f1g.
W.A. de Jong, R.J. Harrison, D.A. Dixon. J. Chem. Phys. 114 (2001) 48. doi:10.1063/1.1329891
OXYGEN (12s,6p,3d,2f,1g) -> [5s,4p,3d,2f,1g]
     8.0   4
* s-type functions
   12    5
      61420.00000000
       9199.00000000
       2091.00000000
        590.90000000
        192.30000000
         69.32000000
         26.97000000
         11.10000000
          4.68200000
          1.42800000
          0.55470000
          0.20670000
  0.0001989000 -0.0000452000  0.0000000000  0.0000000000  0.0000000000
  0.0008884000 -0.0002026000  0.0000000000  0.0000000000  0.0000000000
  0.0039425000 -0.0008948000  0.0000000000  0.0000000000  0.0000000000
  0.0156072000 -0.0036058000  0.0000000000  0.0000000000  0.0000000000
  0.0529461000 -0.0123033000  0.0000000000  0.0000000000  0.0000000000
  0.1464382000 -0.0364684000  0.0000000000  0.0000000000  0.0000000000
  0.3054148000 -0.0831671000  0.0000000000  0.0000000000  0.0000000000
  0.3979979000 -0.1521740000  0.0000000000  0.0000000000  0.0000000000
  0.2164354000 -0.1146271000  0.0000000000  0.0000000000  0.0000000000
  0.0175357000  0.2900259000  1.0000000000  0.0000000000  0.0000000000
 -0.0024923000  0.5858437000  0.0000000000  1.0000000000  0.0000000000
  0.0009507000  0.2767342000  0.0000000000  0.0000000000  1.0000000000
* p-type functions
    6    4
         63.42000000
         14.66000000
          4.45900000
          1.53100000
          0.53020000
          0.17500000
  0.0061107000  0.0000000000  0.0000000000  0.0000000000
  0.0418957000  0.0000000000  0.0000000000  0.0000000000
  0.1612329000  0.0000000000  0.0000000000  0.0000000000
  0.3566752000  1.0000000000  0.0000000000  0.0000000000
  0.4481837000  0.0000000000  1.0000000000  0.0000000000
  0.2450542000  0.0000000000  0.0000000000  1.0000000000
* d-type functions
    3    3
          3.77500000
          1.30000000
          0.44400000
  1.0000000000  0.0000000000  0.0000000000
  0.0000000000  1.0000000000  0.0000000000
  0.0000000000  0.0000000000  1.0000000000
* f-type functions
    2    2
          2.66600000
          0.85900000
  1.0000000000  0.0000000000
  0.0000000000  1.0000000000
* g-type functions
    1    1
          1.84600000
  1.0000000000

/F.cc-pVQZ-DK.de_Jong.12s6p3d2f1g.5s4p3d2f1g.
W.A. de Jong, R.J. Harrison, D.A. Dixon. J. Chem. Phys. 114 (2001) 48. doi:10.1063/1.1329891
FLUORINE (12s,6p,3d,2f,1g) -> [5s,4p,3d,2f,1g]
     9.0   4
* s-type functions
   12    5
      74530.00000000
      11170.00000000
       2543.00000000
        721.00000000
        235.90000000
         85.60000000
         33.55000000
         13.93000000
          5.91500000
          1.84300000
          0.71240000
          0.26370000
  0.0002270000 -0.0000526000  0.0000000000  0.0000000000  0.0000000000
  0.0009782000 -0.0002277000  0.0000000000  0.0000000000  0.0000000000
  0.0042187000 -0.0009777000  0.0000000000  0.0000000000  0.0000000000
  0.0164262000 -0.0038762000  0.0000000000  0.0000000000  0.0000000000
  0.0549597000 -0.0130575000  0.0000000000  0.0000000000  0.0000000000
  0.1501715000 -0.0383358000  0.0000000000  0.0000000000  0.0000000000
  0.3084373000 -0.0864713000  0.0000000000  0.0000000000  0.0000000000
  0.3941862000 -0.1559566000  0.0000000000  0.0000000000  0.0000000000
  0.2103451000 -0.1099779000  0.0000000000  0.0000000000  0.0000000000
  0.0170770000  0.3001010000  1.0000000000  0.0000000000  0.0000000000
 -0.0020049000  0.5846286000  0.0000000000  1.0000000000  0.0000000000
  0.0008657000  0.2700084000  0.0000000000  0.0000000000  1.0000000000
* p-type functions
    6    4
         80.39000000
         18.63000000
          5.69400000
          1.95300000
          0.67020000
          0.21660000
  0.0064367000  0.0000000000  0.0000000000  0.0000000000
  0.0443407000  0.0000000000  0.0000000000  0.0000000000
  0.1686436000  0.0000000000  0.0000000000  0.0000000000
  0.3614995000  1.0000000000  0.0000000000  0.0000000000
  0.4420179000  0.0000000000  1.0000000000  0.0000000000
  0.2435499000  0.0000000000  0.0000000000  1.0000000000
* d-type functions
    3    3
          5.01400000
          1.72500000
          0.58600000
  1.0000000000  0.0000000000  0.0000000000
  0.0000000000  1.0000000000  0.0000000000
  0.0000000000  0.0000000000  1.0000000000
* f-type functions
    2    2
          3.56200000
          1.14800000
  1.0000000000  0.0000000000
  0.0000000000  1.0000000000
* g-type functions
    1    1
          2.37600000
  1.0000000000

/Ne.cc-pVQZ-DK.de_Jong.12s6p3d2f1g.5s4p3d2f1g.
W.A. de Jong, R.J. Harrison, D.A. Dixon. J. Chem. Phys. 114 (2001) 48. doi:10.1063/1.1329891
NEON (12s,6p,3d,2f,1g) -> [5s,4p,3d,2f,1g]
    10.0   4
* s-type functions
   12    5
      99920.00000000
      14960.00000000
       3399.00000000
        958.90000000
        311.20000000
        111.70000000
         43.32000000
         17.80000000
          7.50300000
          2.33700000
          0.90010000
          0.33010000
  0.0002309000 -0.0000543000  0.0000000000  0.0000000000  0.0000000000
  0.0009487000 -0.0002242000  0.0000000000  0.0000000000  0.0000000000
  0.0039528000 -0.0009299000  0.0000000000  0.0000000000  0.0000000000
  0.0152737000 -0.0036578000  0.0000000000  0.0000000000  0.0000000000
  0.0517892000 -0.0124756000  0.0000000000  0.0000000000  0.0000000000
  0.1445869000 -0.0373656000  0.0000000000  0.0000000000  0.0000000000
  0.3048408000 -0.0864225000  0.0000000000  0.0000000000  0.0000000000
  0.3992901000 -0.1585073000  0.0000000000  0.0000000000  0.0000000000
  0.2177599000 -0.1131074000  0.0000000000  0.0000000000  0.0000000000
  0.0185641000  0.2998885000  1.0000000000  0.0000000000  0.0000000000
 -0.0021536000  0.5853022000  0.0000000000  1.0000000000  0.0000000000
  0.0009466000  0.2710131000  0.0000000000  0.0000000000  1.0000000000
* p-type functions
    6    4
         99.68000000
         23.15000000
          7.10800000
          2.44100000
          0.83390000
          0.26620000
  0.0066835000  0.0000000000  0.0000000000  0.0000000000
  0.0461632000  0.0000000000  0.0000000000  0.0000000000
  0.1735949000  0.0000000000  0.0000000000  0.0000000000
  0.3644982000  1.0000000000  0.0000000000  0.0000000000
  0.4379840000  0.0000000000  1.0000000000  0.0000000000
  0.2417932000  0.0000000000  0.0000000000  1.0000000000
* d-type functions
    3    3
          6.47100000
          2.21300000
          0.74700000
  1.0000000000  0.0000000000  0.0000000000
  0.0000000000  1.0000000000  0.0000000000
  0.0000000000  0.0000000000  1.0000000000
* f-type functions
    2    2
          4.65700000
          1.52400000
  1.0000000000  0.0000000000
  0.0000000000  1.0000000000
* g-type functions
    1    1
          2.98300000
  1.0000000000

/Na.cc-pVQZ-DK.de_Jong.19s12p3d2f1g.6s5p3d2f1g.
W.A. de Jong, R.J. Harrison, D.A. Dixon. J. Chem. Phys. 114 (2001) 48. doi:10.1063/1.1329891
SODIUM (19s,12p,3d,2f,1g) -> [6s,5p,3d,2f,1g]
    11.0   4
* s-type functions
   19    6
    1224000.00000000
     183200.00000000
      41700.00000000
      11810.00000000
       3853.00000000
       1391.00000000
        542.50000000
        224.90000000
         97.93000000
         44.31000000
         20.65000000
          9.72900000
          4.22800000
          1.96900000
          0.88900000
          0.39640000
          0.06993000
          0.03289000
          0.01612000
  0.0000384000 -0.0000094000  0.0000014000  0.0000000000  0.0000000000  0.0000000000
  0.0001214000 -0.0000297000  0.0000045000  0.0000000000  0.0000000000  0.0000000000
  0.0003735000 -0.0000916000  0.0000138000  0.0000000000  0.0000000000  0.0000000000
  0.0011226000 -0.0002753000  0.0000414000  0.0000000000  0.0000000000  0.0000000000
  0.0034243000 -0.0008427000  0.0001269000  0.0000000000  0.0000000000  0.0000000000
  0.0102715000 -0.0025382000  0.0003813000  0.0000000000  0.0000000000  0.0000000000
  0.0289918000 -0.0072706000  0.0010962000  0.0000000000  0.0000000000  0.0000000000
  0.0741036000 -0.0190949000  0.0028743000  0.0000000000  0.0000000000  0.0000000000
  0.1636649000 -0.0450056000  0.0068266000  0.0000000000  0.0000000000  0.0000000000
  0.2887998000 -0.0901063000  0.0137060000  0.0000000000  0.0000000000  0.0000000000
  0.3459070000 -0.1429400000  0.0222733000  0.0000000000  0.0000000000  0.0000000000
  0.2058713000 -0.1232733000  0.0194615000  0.0000000000  0.0000000000  0.0000000000
  0.0325950000  0.1016495000 -0.0171479000  0.0000000000  0.0000000000  0.0000000000
 -0.0006392000  0.4178921000 -0.0774282000  0.0000000000  0.0000000000  0.0000000000
  0.0014474000  0.4740231000 -0.1139147000  0.0000000000  0.0000000000  0.0000000000
 -0.0001751000  0.1619561000 -0.1380056000  0.0000000000  0.0000000000  0.0000000000
  0.0000899000  0.0030052000  0.4426772000  1.0000000000  0.0000000000  0.0000000000
 -0.0000806000 -0.0014860000  0.5366790000  0.0000000000  1.0000000000  0.0000000000
  0.0000281000  0.0005357000  0.1334771000  0.0000000000  0.0000000000  1.0000000000
* p-type functions
   12    5
        413.40000000
         97.98000000
         31.37000000
         11.62000000
          4.67100000
          1.91800000
          0.77750000
          0.30130000
          0.22750000
          0.07527000
          0.03126000
          0.01342000
  0.0009678000 -0.0000961000  0.0000000000  0.0000000000  0.0000000000
  0.0075358000 -0.0007513000  0.0000000000  0.0000000000  0.0000000000
  0.0359650000 -0.0035957000  0.0000000000  0.0000000000  0.0000000000
  0.1187550000 -0.0120397000  0.0000000000  0.0000000000  0.0000000000
  0.2614638000 -0.0267252000  0.0000000000  0.0000000000  0.0000000000
  0.3782233000 -0.0392593000  0.0000000000  0.0000000000  0.0000000000
  0.3344927000 -0.0375978000  0.0000000000  0.0000000000  0.0000000000
  0.1267953000 -0.0433062000  0.0000000000  0.0000000000  0.0000000000
 -0.0146216000  0.0518049000  0.0000000000  0.0000000000  0.0000000000
  0.0056900000  0.2602216000  1.0000000000  0.0000000000  0.0000000000
 -0.0017088000  0.5496707000  0.0000000000  1.0000000000  0.0000000000
  0.0005469000  0.2818474000  0.0000000000  0.0000000000  1.0000000000
* d-type functions
    3    3
          0.15380000
          0.08650000
          0.04870000
  1.0000000000  0.0000000000  0.0000000000
  0.0000000000  1.0000000000  0.0000000000
  0.0000000000  0.0000000000  1.0000000000
* f-type functions
    2    2
          0.19120000
          0.10360000
  1.0000000000  0.0000000000
  0.0000000000  1.0000000000
* g-type functions
    1    1
          0.17220000
  1.0000000000

/Mg.cc-pVQZ-DK.de_Jong.16s12p3d2f1g.6s5p3d2f1g.
W.A. de Jong, R.J. Harrison, D.A. Dixon. J. Chem. Phys. 114 (2001) 48. doi:10.1063/1.1329891
MAGNESIUM (16s,12p,3d,2f,1g) -> [6s,5p,3d,2f,1g]
    12.0   4
* s-type functions
   16    6
     327600.00000000
      49050.00000000
      11150.00000000
       3152.00000000
       1025.00000000
        368.80000000
        143.20000000
         58.96000000
         25.40000000
         11.15000000
          4.00400000
          1.70100000
          0.70600000
          0.14100000
          0.06808000
          0.03063000
  0.0001374000 -0.0000349000  0.0000067000  0.0000000000  0.0000000000  0.0000000000
  0.0004833000 -0.0001225000  0.0000236000  0.0000000000  0.0000000000  0.0000000000
  0.0017106000 -0.0004355000  0.0000839000  0.0000000000  0.0000000000  0.0000000000
  0.0059767000 -0.0015201000  0.0002930000  0.0000000000  0.0000000000  0.0000000000
  0.0199746000 -0.0051629000  0.0009960000  0.0000000000  0.0000000000  0.0000000000
  0.0599650000 -0.0157370000  0.0030394000  0.0000000000  0.0000000000  0.0000000000
  0.1525833000 -0.0428686000  0.0083179000  0.0000000000  0.0000000000  0.0000000000
  0.3010112000 -0.0945231000  0.0184823000  0.0000000000  0.0000000000  0.0000000000
  0.3799765000 -0.1634933000  0.0327037000  0.0000000000  0.0000000000  0.0000000000
  0.2123223000 -0.1230493000  0.0253174000  0.0000000000  0.0000000000  0.0000000000
  0.0229431000  0.2381350000 -0.0540287000  0.0000000000  0.0000000000  0.0000000000
 -0.0022859000  0.5772301000 -0.1574594000  0.0000000000  0.0000000000  0.0000000000
  0.0012788000  0.3329505000 -0.2052544000  0.0000000000  0.0000000000  0.0000000000
 -0.0004225000  0.0152353000  0.3272172000  1.0000000000  0.0000000000  0.0000000000
  0.0003511000 -0.0081176000  0.5507251000  0.0000000000  1.0000000000  0.0000000000
 -0.0001116000  0.0021537000  0.2593709000  0.0000000000  0.0000000000  1.0000000000
* p-type functions
   12    5
        539.60000000
        127.90000000
         41.02000000
         15.25000000
          6.16600000
          2.56100000
          1.06000000
          0.41760000
          0.26900000
          0.12230000
          0.05476000
          0.02388000
  0.0009048000 -0.0001429000  0.0000000000  0.0000000000  0.0000000000
  0.0070359000 -0.0011146000  0.0000000000  0.0000000000  0.0000000000
  0.0340630000 -0.0054224000  0.0000000000  0.0000000000  0.0000000000
  0.1147194000 -0.0185437000  0.0000000000  0.0000000000  0.0000000000
  0.2596377000 -0.0426194000  0.0000000000  0.0000000000  0.0000000000
  0.3849025000 -0.0644771000  0.0000000000  0.0000000000  0.0000000000
  0.3351348000 -0.0626349000  0.0000000000  0.0000000000  0.0000000000
  0.1105931000 -0.0244757000  0.0000000000  0.0000000000  0.0000000000
 -0.0120673000  0.1040184000  0.0000000000  0.0000000000  0.0000000000
  0.0070098000  0.3582094000  1.0000000000  0.0000000000  0.0000000000
 -0.0015141000  0.4884085000  0.0000000000  1.0000000000  0.0000000000
  0.0004497000  0.1918392000  0.0000000000  0.0000000000  1.0000000000
* d-type functions
    3    3
          0.10600000
          0.19440000
          0.35700000
  1.0000000000  0.0000000000  0.0000000000
  0.0000000000  1.0000000000  0.0000000000
  0.0000000000  0.0000000000  1.0000000000
* f-type functions
    2    2
          0.18100000
          0.35900000
  1.0000000000  0.0000000000
  0.0000000000  1.0000000000
* g-type functions
    1    1
          0.30700000
  1.0000000000

/Al.cc-pVQZ-DK.de_Jong.16s11p3d2f1g.6s5p3d2f1g.
W.A. de Jong, R.J. Harrison, D.A. Dixon. J. Chem. Phys. 114 (2001) 48. doi:10.1063/1.1329891
ALUMINIUM (16s,11p,3d,2f,1g) -> [6s,5p,3d,2f,1g]
    13.0   4
* s-type functions
   16    6
     419600.00000000
      62830.00000000
      14290.00000000
       4038.00000000
       1312.00000000
        470.50000000
        181.80000000
         74.46000000
         31.90000000
         13.96000000
          5.18000000
          2.26500000
          0.96640000
          0.24470000
          0.11840000
          0.05021000
  0.0001389000 -0.0000362000  0.0000084000  0.0000000000  0.0000000000  0.0000000000
  0.0004753000 -0.0001241000  0.0000286000  0.0000000000  0.0000000000  0.0000000000
  0.0016292000 -0.0004267000  0.0000986000  0.0000000000  0.0000000000  0.0000000000
  0.0055290000 -0.0014484000  0.0003344000  0.0000000000  0.0000000000  0.0000000000
  0.0182635000 -0.0048507000  0.0011225000  0.0000000000  0.0000000000  0.0000000000
  0.0551514000 -0.0148872000  0.0034429000  0.0000000000  0.0000000000  0.0000000000
  0.1426944000 -0.0409761000  0.0095440000  0.0000000000  0.0000000000  0.0000000000
  0.2897463000 -0.0928521000  0.0217412000  0.0000000000  0.0000000000  0.0000000000
  0.3835431000 -0.1646399000  0.0396522000  0.0000000000  0.0000000000  0.0000000000
  0.2312693000 -0.1393633000  0.0343707000  0.0000000000  0.0000000000  0.0000000000
  0.0290679000  0.1984186000 -0.0536225000  0.0000000000  0.0000000000  0.0000000000
 -0.0029729000  0.5723849000 -0.1927024000  0.0000000000  0.0000000000  0.0000000000
  0.0016503000  0.3712390000 -0.2522909000  0.0000000000  0.0000000000  0.0000000000
 -0.0005991000  0.0228163000  0.2786763000  1.0000000000  0.0000000000  0.0000000000
  0.0004264000 -0.0087575000  0.6030458000  0.0000000000  1.0000000000  0.0000000000
 -0.0001215000  0.0020352000  0.2858736000  0.0000000000  0.0000000000  1.0000000000
* p-type functions
   11    5
        891.30000000
        211.30000000
         68.28000000
         25.70000000
         10.63000000
          4.60200000
          2.01500000
          0.87060000
          0.29720000
          0.11000000
          0.03989000
  0.0005579000 -0.0001007000  0.0000000000  0.0000000000  0.0000000000
  0.0042974000 -0.0007704000  0.0000000000  0.0000000000  0.0000000000
  0.0215372000 -0.0039192000  0.0000000000  0.0000000000  0.0000000000
  0.0767988000 -0.0139974000  0.0000000000  0.0000000000  0.0000000000
  0.1945799000 -0.0367111000  0.0000000000  0.0000000000  0.0000000000
  0.3343660000 -0.0627027000  0.0000000000  0.0000000000  0.0000000000
  0.3746890000 -0.0788205000  0.0000000000  0.0000000000  0.0000000000
  0.2038459000 -0.0286871000  0.0000000000  0.0000000000  0.0000000000
  0.0214042000  0.2379581000  1.0000000000  0.0000000000  0.0000000000
 -0.0020247000  0.5507411000  0.0000000000  1.0000000000  0.0000000000
  0.0008190000  0.3553038000  0.0000000000  0.0000000000  1.0000000000
* d-type functions
    3    3
          0.08040000
          0.19900000
          0.49400000
  1.0000000000  0.0000000000  0.0000000000
  0.0000000000  1.0000000000  0.0000000000
  0.0000000000  0.0000000000  1.0000000000
* f-type functions
    2    2
          0.15400000
          0.40100000
  1.0000000000  0.0000000000
  0.0000000000  1.0000000000
* g-type functions
    1    1
          0.35700000
  1.0000000000

/Si.cc-pVQZ-DK.de_Jong.16s11p3d2f1g.6s5p3d2f1g.
W.A. de Jong, R.J. Harrison, D.A. Dixon. J. Chem. Phys. 114 (2001) 48. doi:10.1063/1.1329891
SILICON (16s,11p,3d,2f,1g) -> [6s,5p,3d,2f,1g]
    14.0   4
* s-type functions
   16    6
     513000.00000000
      76820.00000000
      17470.00000000
       4935.00000000
       1602.00000000
        574.10000000
        221.50000000
         90.54000000
         38.74000000
         16.95000000
          6.45200000
          2.87400000
          1.25000000
          0.35990000
          0.16990000
          0.07066000
  0.0001438000 -0.0000384000  0.0000099000  0.0000000000  0.0000000000  0.0000000000
  0.0004823000 -0.0001290000  0.0000330000  0.0000000000  0.0000000000  0.0000000000
  0.0016122000 -0.0004325000  0.0001109000  0.0000000000  0.0000000000  0.0000000000
  0.0053396000 -0.0014340000  0.0003672000  0.0000000000  0.0000000000  0.0000000000
  0.0174067000 -0.0047331000  0.0012158000  0.0000000000  0.0000000000  0.0000000000
  0.0524374000 -0.0145011000  0.0037197000  0.0000000000  0.0000000000  0.0000000000
  0.1367697000 -0.0400944000  0.0103715000  0.0000000000  0.0000000000  0.0000000000
  0.2819429000 -0.0921542000  0.0239422000  0.0000000000  0.0000000000  0.0000000000
  0.3839309000 -0.1657971000  0.0444389000  0.0000000000  0.0000000000  0.0000000000
  0.2437420000 -0.1503143000  0.0412255000  0.0000000000  0.0000000000  0.0000000000
  0.0339535000  0.1721760000 -0.0513350000  0.0000000000  0.0000000000  0.0000000000
 -0.0033064000  0.5693971000 -0.2176605000  0.0000000000  0.0000000000  0.0000000000
  0.0018550000  0.3947389000 -0.2841831000  0.0000000000  0.0000000000  0.0000000000
 -0.0006853000  0.0283270000  0.2675621000  1.0000000000  0.0000000000  0.0000000000
  0.0004333000 -0.0081577000  0.6331859000  0.0000000000  1.0000000000  0.0000000000
 -0.0001212000  0.0019124000  0.2885151000  0.0000000000  0.0000000000  1.0000000000
* p-type functions
   11    5
       1122.00000000
        266.00000000
         85.92000000
         32.33000000
         13.37000000
          5.80000000
          2.55900000
          1.12400000
          0.39880000
          0.15330000
          0.05728000
  0.0005232000 -0.0001125000  0.0000000000  0.0000000000  0.0000000000
  0.0039764000 -0.0008461000  0.0000000000  0.0000000000  0.0000000000
  0.0201449000 -0.0043718000  0.0000000000  0.0000000000  0.0000000000
  0.0731848000 -0.0158505000  0.0000000000  0.0000000000  0.0000000000
  0.1902497000 -0.0430226000  0.0000000000  0.0000000000  0.0000000000
  0.3356425000 -0.0751907000  0.0000000000  0.0000000000  0.0000000000
  0.3789449000 -0.0969744000  0.0000000000  0.0000000000  0.0000000000
  0.2008937000 -0.0224752000  0.0000000000  0.0000000000  0.0000000000
  0.0208641000  0.2918180000  1.0000000000  0.0000000000  0.0000000000
 -0.0017028000  0.5502224000  0.0000000000  1.0000000000  0.0000000000
  0.0007510000  0.2981949000  0.0000000000  0.0000000000  1.0000000000
* d-type functions
    3    3
          0.12000000
          0.30200000
          0.76000000
  1.0000000000  0.0000000000  0.0000000000
  0.0000000000  1.0000000000  0.0000000000
  0.0000000000  0.0000000000  1.0000000000
* f-type functions
    2    2
          0.21200000
          0.54100000
  1.0000000000  0.0000000000
  0.0000000000  1.0000000000
* g-type functions
    1    1
          0.46100000
  1.0000000000

/P.cc-pVQZ-DK.de_Jong.16s11p3d2f1g.6s5p3d2f1g.
W.A. de Jong, R.J. Harrison, D.A. Dixon. J. Chem. Phys. 114 (2001) 48. doi:10.1063/1.1329891
PHOSPHORUS (16s,11p,3d,2f,1g) -> [6s,5p,3d,2f,1g]
    15.0   4
* s-type functions
   16    6
     615200.00000000
      92120.00000000
      20950.00000000
       5920.00000000
       1922.00000000
        688.00000000
        265.00000000
        108.20000000
         46.22000000
         20.23000000
          7.85900000
          3.54700000
          1.56400000
          0.48880000
          0.22660000
          0.09331000
  0.0001494000 -0.0000408000  0.0000112000  0.0000000000  0.0000000000  0.0000000000
  0.0004927000 -0.0001345000  0.0000370000  0.0000000000  0.0000000000  0.0000000000
  0.0016113000 -0.0004412000  0.0001213000  0.0000000000  0.0000000000  0.0000000000
  0.0052114000 -0.0014294000  0.0003925000  0.0000000000  0.0000000000  0.0000000000
  0.0167435000 -0.0046453000  0.0012800000  0.0000000000  0.0000000000  0.0000000000
  0.0503603000 -0.0142168000  0.0039107000  0.0000000000  0.0000000000  0.0000000000
  0.1319373000 -0.0393765000  0.0109296000  0.0000000000  0.0000000000  0.0000000000
  0.2753508000 -0.0915378000  0.0255132000  0.0000000000  0.0000000000  0.0000000000
  0.3838728000 -0.1668405000  0.0480500000  0.0000000000  0.0000000000  0.0000000000
  0.2536762000 -0.1589841000  0.0468949000  0.0000000000  0.0000000000  0.0000000000
  0.0386519000  0.1510834000 -0.0480519000  0.0000000000  0.0000000000  0.0000000000
 -0.0036276000  0.5670363000 -0.2363588000  0.0000000000  0.0000000000  0.0000000000
  0.0020548000  0.4125417000 -0.3085593000  0.0000000000  0.0000000000  0.0000000000
 -0.0007778000  0.0333399000  0.2620956000  1.0000000000  0.0000000000  0.0000000000
  0.0004479000 -0.0074538000  0.6519427000  0.0000000000  1.0000000000  0.0000000000
 -0.0001249000  0.0018300000  0.2913262000  0.0000000000  0.0000000000  1.0000000000
* p-type functions
   11    5
       1367.00000000
        324.00000000
        104.60000000
         39.37000000
         16.26000000
          7.05600000
          3.13000000
          1.39400000
          0.51790000
          0.20320000
          0.07698000
  0.0005063000 -0.0001211000  0.0000000000  0.0000000000  0.0000000000
  0.0037938000 -0.0008984000  0.0000000000  0.0000000000  0.0000000000
  0.0193127000 -0.0046649000  0.0000000000  0.0000000000  0.0000000000
  0.0711381000 -0.0171725000  0.0000000000  0.0000000000  0.0000000000
  0.1886840000 -0.0476350000  0.0000000000  0.0000000000  0.0000000000
  0.3387104000 -0.0852209000  0.0000000000  0.0000000000  0.0000000000
  0.3814251000 -0.1094597000  0.0000000000  0.0000000000  0.0000000000
  0.1948542000 -0.0157089000  0.0000000000  0.0000000000  0.0000000000
  0.0199371000  0.3228357000  1.0000000000  0.0000000000  0.0000000000
 -0.0013486000  0.5453123000  0.0000000000  1.0000000000  0.0000000000
  0.0005174000  0.2689083000  0.0000000000  0.0000000000  1.0000000000
* d-type functions
    3    3
          0.16500000
          0.41300000
          1.03600000
  1.0000000000  0.0000000000  0.0000000000
  0.0000000000  1.0000000000  0.0000000000
  0.0000000000  0.0000000000  1.0000000000
* f-type functions
    2    2
          0.28000000
          0.70300000
  1.0000000000  0.0000000000
  0.0000000000  1.0000000000
* g-type functions
    1    1
          0.59700000
  1.0000000000

/S.cc-pVQZ-DK.de_Jong.16s11p3d2f1g.6s5p3d2f1g.
W.A. de Jong, R.J. Harrison, D.A. Dixon. J. Chem. Phys. 114 (2001) 48. doi:10.1063/1.1329891
SULFUR (16s,11p,3d,2f,1g) -> [6s,5p,3d,2f,1g]
    16.0   4
* s-type functions
   16    6
     727800.00000000
     109000.00000000
      24800.00000000
       7014.00000000
       2278.00000000
        814.70000000
        313.40000000
        127.70000000
         54.48000000
         23.85000000
          9.42800000
          4.29000000
          1.90900000
          0.62700000
          0.28730000
          0.11720000
  0.0001554000 -0.0000432000  0.0000125000  0.0000000000  0.0000000000  0.0000000000
  0.0005046000 -0.0001403000  0.0000407000  0.0000000000  0.0000000000  0.0000000000
  0.0016175000 -0.0004508000  0.0001310000  0.0000000000  0.0000000000  0.0000000000
  0.0051117000 -0.0014279000  0.0004143000  0.0000000000  0.0000000000  0.0000000000
  0.0161905000 -0.0045711000  0.0013314000  0.0000000000  0.0000000000  0.0000000000
  0.0484992000 -0.0139376000  0.0040511000  0.0000000000  0.0000000000  0.0000000000
  0.1276676000 -0.0386964000  0.0113555000  0.0000000000  0.0000000000  0.0000000000
  0.2694767000 -0.0908910000  0.0267755000  0.0000000000  0.0000000000  0.0000000000
  0.3831611000 -0.1674364000  0.0510364000  0.0000000000  0.0000000000  0.0000000000
  0.2627392000 -0.1666169000  0.0520469000  0.0000000000  0.0000000000  0.0000000000
  0.0431322000  0.1328293000 -0.0442967000  0.0000000000  0.0000000000  0.0000000000
 -0.0037264000  0.5655083000 -0.2526072000  0.0000000000  0.0000000000  0.0000000000
  0.0021479000  0.4272415000 -0.3297678000  0.0000000000  0.0000000000  0.0000000000
 -0.0008248000  0.0376609000  0.2696286000  1.0000000000  0.0000000000  0.0000000000
  0.0004419000 -0.0069302000  0.6648556000  0.0000000000  1.0000000000  0.0000000000
 -0.0001237000  0.0018236000  0.2851035000  0.0000000000  0.0000000000  1.0000000000
* p-type functions
   11    5
       1546.00000000
        366.40000000
        118.40000000
         44.53000000
         18.38000000
          7.96500000
          3.54100000
          1.59100000
          0.62050000
          0.24200000
          0.09014000
  0.0005420000 -0.0001388000  0.0000000000  0.0000000000  0.0000000000
  0.0039949000 -0.0010148000  0.0000000000  0.0000000000  0.0000000000
  0.0203053000 -0.0052563000  0.0000000000  0.0000000000  0.0000000000
  0.0749103000 -0.0194496000  0.0000000000  0.0000000000  0.0000000000
  0.1979599000 -0.0537531000  0.0000000000  0.0000000000  0.0000000000
  0.3518386000 -0.0959730000  0.0000000000  0.0000000000  0.0000000000
  0.3780259000 -0.1178745000  0.0000000000  0.0000000000  0.0000000000
  0.1704564000  0.0097800000  0.0000000000  0.0000000000  0.0000000000
  0.0151498000  0.3588151000  1.0000000000  0.0000000000  0.0000000000
  0.0000683000  0.5253680000  0.0000000000  1.0000000000  0.0000000000
  0.0004064000  0.2491316000  0.0000000000  0.0000000000  1.0000000000
* d-type functions
    3    3
          0.20300000
          0.50400000
          1.25000000
  1.0000000000  0.0000000000  0.0000000000
  0.0000000000  1.0000000000  0.0000000000
  0.0000000000  0.0000000000  1.0000000000
* f-type functions
    2    2
          0.33500000
          0.86900000
  1.0000000000  0.0000000000
  0.0000000000  1.0000000000
* g-type functions
    1    1
          0.68300000
  1.0000000000

/Cl.cc-pVQZ-DK.de_Jong.16s11p3d2f1g.6s5p3d2f1g.
W.A. de Jong, R.J. Harrison, D.A. Dixon. J. Chem. Phys. 114 (2001) 48. doi:10.1063/1.1329891
CHLORINE (16s,11p,3d,2f,1g) -> [6s,5p,3d,2f,1g]
    17.0   4
* s-type functions
   16    6
     834900.00000000
     125000.00000000
      28430.00000000
       8033.00000000
       2608.00000000
        933.90000000
        360.00000000
        147.00000000
         62.88000000
         27.60000000
         11.08000000
          5.07500000
          2.27800000
          0.77750000
          0.35270000
          0.14310000
  0.0001641000 -0.0000463000  0.0000140000  0.0000000000  0.0000000000  0.0000000000
  0.0005267000 -0.0001487000  0.0000450000  0.0000000000  0.0000000000  0.0000000000
  0.0016638000 -0.0004710000  0.0001427000  0.0000000000  0.0000000000  0.0000000000
  0.0051711000 -0.0014677000  0.0004439000  0.0000000000  0.0000000000  0.0000000000
  0.0161450000 -0.0046298000  0.0014057000  0.0000000000  0.0000000000  0.0000000000
  0.0478990000 -0.0139887000  0.0042378000  0.0000000000  0.0000000000  0.0000000000
  0.1256947000 -0.0386727000  0.0118341000  0.0000000000  0.0000000000  0.0000000000
  0.2655995000 -0.0909250000  0.0279279000  0.0000000000  0.0000000000  0.0000000000
  0.3811966000 -0.1680822000  0.0534861000  0.0000000000  0.0000000000  0.0000000000
  0.2679211000 -0.1717136000  0.0560161000  0.0000000000  0.0000000000  0.0000000000
  0.0464082000  0.1206631000 -0.0416406000  0.0000000000  0.0000000000  0.0000000000
 -0.0036484000  0.5645474000 -0.2664792000  0.0000000000  0.0000000000  0.0000000000
  0.0021529000  0.4364054000 -0.3452430000  0.0000000000  0.0000000000  0.0000000000
 -0.0008348000  0.0411504000  0.2763678000  1.0000000000  0.0000000000  0.0000000000
  0.0004170000 -0.0062879000  0.6738291000  0.0000000000  1.0000000000  0.0000000000
 -0.0001179000  0.0018014000  0.2808139000  0.0000000000  0.0000000000  1.0000000000
* p-type functions
   11    5
       1703.00000000
        403.60000000
        130.30000000
         49.05000000
         20.26000000
          8.78700000
          3.91900000
          1.76500000
          0.72070000
          0.28390000
          0.10600000
  0.0005937000 -0.0001606000  0.0000000000  0.0000000000  0.0000000000
  0.0043262000 -0.0011649000  0.0000000000  0.0000000000  0.0000000000
  0.0218990000 -0.0059897000  0.0000000000  0.0000000000  0.0000000000
  0.0803025000 -0.0221645000  0.0000000000  0.0000000000  0.0000000000
  0.2096664000 -0.0603359000  0.0000000000  0.0000000000  0.0000000000
  0.3648911000 -0.1068579000  0.0000000000  0.0000000000  0.0000000000
  0.3708910000 -0.1220136000  0.0000000000  0.0000000000  0.0000000000
  0.1457674000  0.0390608000  0.0000000000  0.0000000000  0.0000000000
  0.0107846000  0.3852188000  1.0000000000  0.0000000000  0.0000000000
  0.0011685000  0.5067767000  0.0000000000  1.0000000000  0.0000000000
  0.0003412000  0.2273759000  0.0000000000  0.0000000000  1.0000000000
* d-type functions
    3    3
          0.25400000
          0.62800000
          1.55100000
  1.0000000000  0.0000000000  0.0000000000
  0.0000000000  1.0000000000  0.0000000000
  0.0000000000  0.0000000000  1.0000000000
* f-type functions
    2    2
          0.42300000
          1.08900000
  1.0000000000  0.0000000000
  0.0000000000  1.0000000000
* g-type functions
    1    1
          0.82700000
  1.0000000000

/Ar.cc-pVQZ-DK.de_Jong.16s11p3d2f1g.6s5p3d2f1g.
W.A. de Jong, R.J. Harrison, D.A. Dixon. J. Chem. Phys. 114 (2001) 48. doi:10.1063/1.1329891
ARGON (16s,11p,3d,2f,1g) -> [6s,5p,3d,2f,1g]
    18.0   4
* s-type functions
   16    6
     950600.00000000
     142300.00000000
      32360.00000000
       9145.00000000
       2970.00000000
       1064.00000000
        410.80000000
        168.00000000
         71.99000000
         31.67000000
         12.89000000
          5.92900000
          2.67800000
          0.94160000
          0.42390000
          0.17140000
  0.0001729000 -0.0000494000  0.0000155000  0.0000000000  0.0000000000  0.0000000000
  0.0005491000 -0.0001572000  0.0000491000  0.0000000000  0.0000000000  0.0000000000
  0.0017106000 -0.0004909000  0.0001536000  0.0000000000  0.0000000000  0.0000000000
  0.0052236000 -0.0015035000  0.0004697000  0.0000000000  0.0000000000  0.0000000000
  0.0160867000 -0.0046766000  0.0014670000  0.0000000000  0.0000000000  0.0000000000
  0.0473162000 -0.0140154000  0.0043862000  0.0000000000  0.0000000000  0.0000000000
  0.1237533000 -0.0385750000  0.0121987000  0.0000000000  0.0000000000  0.0000000000
  0.2620152000 -0.0908526000  0.0288360000  0.0000000000  0.0000000000  0.0000000000
  0.3794265000 -0.1685476000  0.0554744000  0.0000000000  0.0000000000  0.0000000000
  0.2726419000 -0.1762288000  0.0594865000  0.0000000000  0.0000000000  0.0000000000
  0.0496374000  0.1095078000 -0.0387248000  0.0000000000  0.0000000000  0.0000000000
 -0.0035227000  0.5638908000 -0.2779522000  0.0000000000  0.0000000000  0.0000000000
  0.0021435000  0.4444235000 -0.3580799000  0.0000000000  0.0000000000  0.0000000000
 -0.0008445000  0.0442992000  0.2807089000  1.0000000000  0.0000000000  0.0000000000
  0.0003963000 -0.0056587000  0.6804312000  0.0000000000  1.0000000000  0.0000000000
 -0.0001137000  0.0017799000  0.2789864000  0.0000000000  0.0000000000  1.0000000000
* p-type functions
   11    5
       1890.00000000
        447.80000000
        144.60000000
         54.46000000
         22.51000000
          9.77400000
          4.36800000
          1.95900000
          0.82600000
          0.32970000
          0.12420000
  0.0006345000 -0.0001777000  0.0000000000  0.0000000000  0.0000000000
  0.0045580000 -0.0012754000  0.0000000000  0.0000000000  0.0000000000
  0.0229891000 -0.0065156000  0.0000000000  0.0000000000  0.0000000000
  0.0840762000 -0.0241765000  0.0000000000  0.0000000000  0.0000000000
  0.2179697000 -0.0651679000  0.0000000000  0.0000000000  0.0000000000
  0.3744141000 -0.1153641000  0.0000000000  0.0000000000  0.0000000000
  0.3654219000 -0.1230461000  0.0000000000  0.0000000000  0.0000000000
  0.1286601000  0.0657576000  0.0000000000  0.0000000000  0.0000000000
  0.0069279000  0.4036000000  1.0000000000  0.0000000000  0.0000000000
  0.0008248000  0.4900167000  0.0000000000  1.0000000000  0.0000000000
 -0.0001491000  0.2085979000  0.0000000000  0.0000000000  1.0000000000
* d-type functions
    3    3
          0.31100000
          0.76300000
          1.87300000
  1.0000000000  0.0000000000  0.0000000000
  0.0000000000  1.0000000000  0.0000000000
  0.0000000000  0.0000000000  1.0000000000
* f-type functions
    2    2
          0.54300000
          1.32500000
  1.0000000000  0.0000000000
  0.0000000000  1.0000000000
* g-type functions
    1    1
          1.00700000
  1.0000000000

/Sc.cc-pVQZ-DK.Balabanov.22s18p11d3f2g1h.8s7p5d3f2g1h.
N.B. Balabanov, K.A. Peterson. J. Chem. Phys. 123 (2005) 064107. doi:10.1063/1.1998907
SCANDIUM (22s,18p,11d,3f,2g,1h) -> [8s,7p,5d,3f,2g,1h]
    21.0   5
* s-type functions
   22    8
    8417909.00000000
    1260312.00000000
     286798.40000000
      81234.69000000
      26503.11000000
       9568.70100000
       3732.49700000
       1548.42200000
        675.54200000
        307.25220000
        144.66720000
         70.04387000
         34.32250000
         15.61224000
          7.74372200
          3.84426000
          1.71976600
          0.83252300
          0.38556400
          0.09670000
          0.04777800
          0.02236300
  0.0000450000 -0.0000260000  0.0000050000 -0.0000010000 -0.0000020000 -0.0000030000 -0.0000040000  0.0000000000
  0.0001300000 -0.0000750000  0.0000150000 -0.0000040000 -0.0000060000 -0.0000100000 -0.0000100000  0.0000000000
  0.0003520000 -0.0002020000  0.0000400000 -0.0000100000 -0.0000170000 -0.0000260000 -0.0000280000  0.0000000000
  0.0008820000 -0.0005070000  0.0001000000 -0.0000240000 -0.0000420000 -0.0000670000 -0.0000700000  0.0000000000
  0.0021990000 -0.0012640000  0.0002490000 -0.0000600000 -0.0001030000 -0.0001600000 -0.0001810000  0.0000000000
  0.0055320000 -0.0031910000  0.0006330000 -0.0001530000 -0.0002720000 -0.0004350000 -0.0004320000  0.0000000000
  0.0140830000 -0.0081610000  0.0016220000 -0.0003920000 -0.0006550000 -0.0010050000 -0.0012120000  0.0000000000
  0.0350930000 -0.0206010000  0.0041490000 -0.0010030000 -0.0018210000 -0.0029490000 -0.0027520000  0.0000000000
  0.0814300000 -0.0489160000  0.0100150000 -0.0024210000 -0.0039590000 -0.0059720000 -0.0077240000  0.0000000000
  0.1645690000 -0.1043990000  0.0224020000 -0.0054190000 -0.0101080000 -0.0166370000 -0.0142930000  0.0000000000
  0.2626320000 -0.1854760000  0.0427710000 -0.0103610000 -0.0162010000 -0.0236840000 -0.0351350000  0.0000000000
  0.2731620000 -0.2443340000  0.0651430000 -0.0158320000 -0.0318930000 -0.0549230000 -0.0368140000  0.0000000000
  0.1412160000 -0.1538870000  0.0450750000 -0.0110030000 -0.0102390000 -0.0072170000 -0.0559630000  0.0000000000
  0.0704600000  0.1868870000 -0.0858650000  0.0211590000  0.0155450000  0.0034090000  0.1117600000  0.0000000000
  0.1249190000  0.5333670000 -0.3310660000  0.0853750000  0.2031530000  0.3895120000  0.2141660000  0.0000000000
  0.0881650000  0.3687560000 -0.3584680000  0.0964150000  0.0891500000  0.0925470000  0.6131590000  0.0000000000
  0.0113260000  0.0495060000  0.2210450000 -0.0709410000  0.0262840000 -0.0164440000 -1.4758760000  0.0000000000
 -0.0004190000 -0.0039720000  0.6853970000 -0.2398400000 -0.9642330000 -2.3078390000 -0.6976530000  0.0000000000
  0.0001250000  0.0001950000  0.3601480000 -0.2720170000  0.2264090000  2.7174500000  2.9768830000  0.0000000000
 -0.0000430000 -0.0003590000  0.0191690000  0.3127010000  2.0955710000  0.0384980000 -5.7468710000  0.0000000000
  0.0000400000  0.0002880000 -0.0058640000  0.6137670000 -1.1942840000 -2.5297130000  6.9531630000  0.0000000000
 -0.0000070000 -0.0000680000  0.0027540000  0.2489400000 -0.6425040000  1.9997590000 -3.0344170000  1.0000000000
* p-type functions
   18    7
      22640.97000000
       5357.54500000
       1740.37300000
        666.61630000
        283.63840000
        129.79760000
         62.67956000
         31.50441000
         16.23525000
          8.51832400
          4.51900500
          2.36659100
          1.21523500
          0.61434800
          0.30074500
          0.12583400
          0.05471900
          0.02348800
  0.0000390000 -0.0000130000 -0.0000030000  0.0000040000  0.0000080000 -0.0000090000  0.0000000000
  0.0001730000 -0.0000570000 -0.0000140000  0.0000170000  0.0000330000 -0.0000440000  0.0000000000
  0.0007840000 -0.0002570000 -0.0000630000  0.0000760000  0.0001590000 -0.0001670000  0.0000000000
  0.0031410000 -0.0010350000 -0.0002520000  0.0003070000  0.0005920000 -0.0008330000  0.0000000000
  0.0111150000 -0.0036790000 -0.0009000000  0.0010930000  0.0022770000 -0.0023500000  0.0000000000
  0.0338110000 -0.0113360000 -0.0027610000  0.0033720000  0.0064620000 -0.0091880000  0.0000000000
  0.0871300000 -0.0298480000 -0.0073230000  0.0088800000  0.0186080000 -0.0185450000  0.0000000000
  0.1810660000 -0.0640540000 -0.0156550000  0.0191230000  0.0360080000 -0.0537550000  0.0000000000
  0.2894700000 -0.1060770000 -0.0262660000  0.0317460000  0.0694180000 -0.0596530000  0.0000000000
  0.3269550000 -0.1280140000 -0.0315690000  0.0387620000  0.0707610000 -0.1569490000  0.0000000000
  0.2089190000 -0.0515380000 -0.0120800000  0.0146420000  0.0575890000  0.0129350000  0.0000000000
  0.0541810000  0.1753060000  0.0527840000 -0.0606900000 -0.1767470000  0.0894440000  0.0000000000
  0.0016720000  0.3929150000  0.1138130000 -0.1356270000 -0.3333020000  1.2768110000  0.0000000000
 -0.0015710000  0.3955600000  0.1457620000 -0.1751720000 -0.5698890000 -1.0591470000  0.0000000000
 -0.0010160000  0.1755030000  0.0132030000 -0.0771000000  1.1782580000 -1.3241720000  0.0000000000
 -0.0000590000  0.0190220000 -0.3522610000  0.5646910000  0.5507190000  2.3680990000  0.0000000000
 -0.0000200000  0.0000740000 -0.5500870000  0.5410650000 -0.9782210000 -1.1750710000  0.0000000000
  0.0000040000  0.0003050000 -0.2263860000  0.0356050000 -0.0769860000 -0.1929740000  1.0000000000
* d-type functions
   11    5
        148.02800000
         43.85280000
         16.66460000
          6.97893000
          3.12369000
          1.44687000
          0.66740700
          0.30163300
          0.13267400
          0.05673900
          0.02317500
  0.0004900000 -0.0005030000 -0.0006520000  0.0008350000  0.0000000000
  0.0041290000 -0.0042440000 -0.0054270000  0.0083830000  0.0000000000
  0.0186860000 -0.0192830000 -0.0252250000  0.0331020000  0.0000000000
  0.0578540000 -0.0603550000 -0.0772000000  0.1257230000  0.0000000000
  0.1370780000 -0.1437060000 -0.1898980000  0.2477730000  0.0000000000
  0.2310160000 -0.2301500000 -0.2877690000  0.4535390000  0.0000000000
  0.2956830000 -0.2631470000 -0.1763680000 -0.5351160000  0.0000000000
  0.3047830000 -0.0555990000  0.5992450000 -0.8932680000  0.0000000000
  0.2399250000  0.4054920000  0.5002360000  1.4396580000  0.0000000000
  0.1100890000  0.4846050000 -0.6733890000 -0.4547520000  0.0000000000
  0.0124510000  0.1119220000 -0.2904810000 -0.3983930000  1.0000000000
* f-type functions
    3    3
          1.39050000
          0.39210000
          0.11060000
  1.0000000000  0.0000000000  0.0000000000
  0.0000000000  1.0000000000  0.0000000000
  0.0000000000  0.0000000000  1.0000000000
* g-type functions
    2    2
          0.97570000
          0.25300000
  1.0000000000  0.0000000000
  0.0000000000  1.0000000000
* h-type functions
    1    1
          0.49340000
  1.0000000000

/Ti.cc-pVQZ-DK.Balabanov.22s18p11d3f2g1h.8s7p5d3f2g1h.
N.B. Balabanov, K.A. Peterson. J. Chem. Phys. 123 (2005) 064107. doi:10.1063/1.1998907
TITANIUM (22s,18p,11d,3f,2g,1h) -> [8s,7p,5d,3f,2g,1h]
    22.0   5
* s-type functions
   22    8
    9317034.00000000
    1394971.00000000
     317453.10000000
      89921.00000000
      29338.16000000
      10592.66000000
       4132.05600000
       1714.23500000
        747.91510000
        340.19910000
        160.20600000
         77.58851000
         38.04489000
         17.35362000
          8.64206200
          4.30440400
          1.93771800
          0.93659400
          0.43262400
          0.10735200
          0.05203400
          0.02403800
  0.0000480000 -0.0000270000  0.0000060000 -0.0000010000 -0.0000020000 -0.0000040000 -0.0000040000  0.0000000000
  0.0001370000 -0.0000780000  0.0000160000 -0.0000040000 -0.0000070000 -0.0000110000 -0.0000120000  0.0000000000
  0.0003690000 -0.0002090000  0.0000430000 -0.0000100000 -0.0000190000 -0.0000290000 -0.0000330000  0.0000000000
  0.0009180000 -0.0005220000  0.0001060000 -0.0000250000 -0.0000470000 -0.0000740000 -0.0000800000  0.0000000000
  0.0022650000 -0.0012900000  0.0002630000 -0.0000620000 -0.0001140000 -0.0001770000 -0.0002080000  0.0000000000
  0.0056370000 -0.0032220000  0.0006590000 -0.0001560000 -0.0002980000 -0.0004720000 -0.0004770000  0.0000000000
  0.0142060000 -0.0081580000  0.0016720000 -0.0003970000 -0.0007100000 -0.0010940000 -0.0013800000  0.0000000000
  0.0351600000 -0.0204590000  0.0042500000 -0.0010080000 -0.0019660000 -0.0031320000 -0.0029340000  0.0000000000
  0.0813360000 -0.0484440000  0.0102280000 -0.0024260000 -0.0042390000 -0.0064710000 -0.0088360000  0.0000000000
  0.1643130000 -0.1033990000  0.0228630000 -0.0054310000 -0.0108910000 -0.0175340000 -0.0148350000  0.0000000000
  0.2627320000 -0.1841860000  0.0437150000 -0.0103860000 -0.0173170000 -0.0259950000 -0.0412370000  0.0000000000
  0.2747630000 -0.2439660000  0.0667600000 -0.0159460000 -0.0346520000 -0.0574830000 -0.0353130000  0.0000000000
  0.1433810000 -0.1550920000  0.0466230000 -0.0111360000 -0.0106910000 -0.0112000000 -0.0745600000  0.0000000000
  0.0699260000  0.1879170000 -0.0882470000  0.0212810000  0.0155810000  0.0114700000  0.1566220000  0.0000000000
  0.1217330000  0.5361260000 -0.3414970000  0.0868200000  0.2245120000  0.4086420000  0.1970970000  0.0000000000
  0.0854080000  0.3679910000 -0.3594440000  0.0946190000  0.0886640000  0.1257640000  0.7633560000  0.0000000000
  0.0109570000  0.0494090000  0.2370220000 -0.0736970000  0.0159690000 -0.1612930000 -2.1344110000  0.0000000000
 -0.0003620000 -0.0038250000  0.6874350000 -0.2412180000 -1.0519990000 -2.2350150000  0.4049510000  0.0000000000
  0.0000950000  0.0000870000  0.3500250000 -0.2563650000  0.3677290000  2.8573850000  2.1153220000  0.0000000000
 -0.0000310000 -0.0003080000  0.0179040000  0.3168670000  2.0024320000 -0.4826880000 -5.0821820000  0.0000000000
  0.0000390000  0.0002850000 -0.0054380000  0.6062010000 -1.2263140000 -1.8788870000  6.4423500000  0.0000000000
 -0.0000030000 -0.0000480000  0.0025370000  0.2487200000 -0.5667060000  1.7439050000 -2.9398560000  1.0000000000
* p-type functions
   18    7
      25537.33000000
       6042.24300000
       1962.65300000
        751.73380000
        319.88330000
        146.43000000
         70.74861000
         35.59088000
         18.36893000
          9.65865500
          5.13673000
          2.69887200
          1.38970300
          0.70316300
          0.34412300
          0.14137500
          0.06079100
          0.02583100
  0.0000410000 -0.0000140000  0.0000030000  0.0000040000  0.0000080000 -0.0000100000  0.0000000000
  0.0001750000 -0.0000590000  0.0000140000  0.0000180000  0.0000340000 -0.0000450000  0.0000000000
  0.0007800000 -0.0002620000  0.0000630000  0.0000790000  0.0001610000 -0.0001770000  0.0000000000
  0.0030920000 -0.0010410000  0.0002490000  0.0003140000  0.0005930000 -0.0008240000  0.0000000000
  0.0109090000 -0.0036910000  0.0008880000  0.0011130000  0.0022830000 -0.0024550000  0.0000000000
  0.0332110000 -0.0113840000  0.0027250000  0.0034320000  0.0064630000 -0.0090560000  0.0000000000
  0.0858830000 -0.0300860000  0.0072650000  0.0090940000  0.0187630000 -0.0196030000  0.0000000000
  0.1795240000 -0.0650050000  0.0156150000  0.0196660000  0.0364410000 -0.0531680000  0.0000000000
  0.2888880000 -0.1085090000  0.0264500000  0.0330480000  0.0710110000 -0.0659310000  0.0000000000
  0.3276960000 -0.1312330000  0.0317660000  0.0402020000  0.0710910000 -0.1487020000  0.0000000000
  0.2100700000 -0.0513800000  0.0120800000  0.0150120000  0.0583500000 -0.0224680000  0.0000000000
  0.0549250000  0.1797250000 -0.0532040000 -0.0640970000 -0.1859340000  0.1803870000  0.0000000000
  0.0018240000  0.3962200000 -0.1129400000 -0.1398750000 -0.3293680000  1.1704710000  0.0000000000
 -0.0015830000  0.3915750000 -0.1429220000 -0.1795270000 -0.5446980000 -1.0091870000  0.0000000000
 -0.0010010000  0.1730820000 -0.0096270000 -0.0499880000  1.1603920000 -1.2804130000  0.0000000000
 -0.0000600000  0.0188130000  0.3540680000  0.5710180000  0.5310260000  2.2836230000  0.0000000000
 -0.0000160000 -0.0002960000  0.5482170000  0.5224460000 -0.9673130000 -1.1335330000  0.0000000000
  0.0000030000  0.0003680000  0.2256830000  0.0348550000 -0.0814950000 -0.2007620000  1.0000000000
* d-type functions
   11    5
        199.97200000
         59.18690000
         22.60130000
          9.57391000
          4.31771000
          2.02373000
          0.94716900
          0.43387700
          0.19212600
          0.08140400
          0.03223300
  0.0003870000 -0.0003950000 -0.0006270000 -0.0007040000  0.0000000000
  0.0033620000 -0.0034330000 -0.0054590000 -0.0070290000  0.0000000000
  0.0161370000 -0.0165460000 -0.0266700000 -0.0306810000  0.0000000000
  0.0519050000 -0.0538430000 -0.0882250000 -0.1179840000  0.0000000000
  0.1286240000 -0.1356220000 -0.2246980000 -0.2736880000  0.0000000000
  0.2291190000 -0.2281990000 -0.3285440000 -0.3822080000  0.0000000000
  0.3019170000 -0.2563190000 -0.1158350000  0.5416700000  0.0000000000
  0.3096490000 -0.0539210000  0.6164880000  0.7650710000  0.0000000000
  0.2346190000  0.3874070000  0.4178460000 -1.2834360000  0.0000000000
  0.1048760000  0.4995520000 -0.6084680000  0.2757400000  0.0000000000
  0.0125200000  0.1318790000 -0.2850030000  0.5443000000  1.0000000000
* f-type functions
    3    3
          2.23310000
          0.63320000
          0.17960000
  1.0000000000  0.0000000000  0.0000000000
  0.0000000000  1.0000000000  0.0000000000
  0.0000000000  0.0000000000  1.0000000000
* g-type functions
    2    2
          1.55030000
          0.39470000
  1.0000000000  0.0000000000
  0.0000000000  1.0000000000
* h-type functions
    1    1
          0.85240000
  1.0000000000

/V.cc-pVQZ-DK.Balabanov.22s18p11d3f2g1h.8s7p5d3f2g1h.
N.B. Balabanov, K.A. Peterson. J. Chem. Phys. 123 (2005) 064107. doi:10.1063/1.1998907
VANADIUM (22s,18p,11d,3f,2g,1h) -> [8s,7p,5d,3f,2g,1h]
    23.0   5
* s-type functions
   22    8
   10251780.00000000
    1534920.00000000
     349300.90000000
      98942.05000000
      32281.36000000
      11655.27000000
       4546.54800000
       1886.18500000
        822.94170000
        374.34390000
        176.30690000
         85.40661000
         41.90435000
         19.15525000
          9.57161700
          4.78008600
          2.16186000
          1.04271100
          0.48028200
          0.11763800
          0.05617400
          0.02566100
  0.0000510000 -0.0000280000  0.0000060000 -0.0000010000 -0.0000030000 -0.0000040000 -0.0000050000  0.0000000000
  0.0001450000 -0.0000800000  0.0000170000 -0.0000040000 -0.0000080000 -0.0000120000 -0.0000140000  0.0000000000
  0.0003880000 -0.0002150000  0.0000450000 -0.0000110000 -0.0000200000 -0.0000320000 -0.0000370000  0.0000000000
  0.0009590000 -0.0005330000  0.0001130000 -0.0000260000 -0.0000510000 -0.0000810000 -0.0000890000  0.0000000000
  0.0023460000 -0.0013050000  0.0002760000 -0.0000640000 -0.0001220000 -0.0001910000 -0.0002320000  0.0000000000
  0.0057780000 -0.0032250000  0.0006850000 -0.0001590000 -0.0003180000 -0.0005020000 -0.0005200000  0.0000000000
  0.0144180000 -0.0080890000  0.0017220000 -0.0004010000 -0.0007480000 -0.0011630000 -0.0015180000  0.0000000000
  0.0354410000 -0.0201520000  0.0043460000 -0.0010120000 -0.0020610000 -0.0032710000 -0.0031210000  0.0000000000
  0.0817150000 -0.0475820000  0.0104260000 -0.0024260000 -0.0044150000 -0.0068350000 -0.0096880000  0.0000000000
  0.1649650000 -0.1015860000  0.0232820000 -0.0054310000 -0.0113810000 -0.0181850000 -0.0155290000  0.0000000000
  0.2641750000 -0.1814790000  0.0445480000 -0.0103840000 -0.0180080000 -0.0276530000 -0.0457170000  0.0000000000
  0.2776330000 -0.2418400000  0.0681470000 -0.0159960000 -0.0363880000 -0.0593360000 -0.0354600000  0.0000000000
  0.1460600000 -0.1546910000  0.0477830000 -0.0111760000 -0.0109160000 -0.0139910000 -0.0871400000  0.0000000000
  0.0683250000  0.1906220000 -0.0909640000  0.0214850000  0.0158660000  0.0177810000  0.1876050000  0.0000000000
  0.1153650000  0.5397270000 -0.3509110000  0.0878790000  0.2385610000  0.4239440000  0.2022650000  0.0000000000
  0.0802700000  0.3667050000 -0.3582080000  0.0922920000  0.0861270000  0.1443250000  0.8408220000  0.0000000000
  0.0102060000  0.0489360000  0.2523820000 -0.0762840000  0.0045110000 -0.2717610000 -2.5807070000  0.0000000000
 -0.0003070000 -0.0037570000  0.6881350000 -0.2409190000 -1.0936470000 -2.1448410000  1.1903460000  0.0000000000
  0.0000610000 -0.0000410000  0.3404340000 -0.2425420000  0.4530570000  2.9061280000  1.4732050000  0.0000000000
 -0.0000200000 -0.0002620000  0.0167320000  0.3201900000  1.9309090000 -0.7881850000 -4.5441610000  0.0000000000
  0.0000370000  0.0002880000 -0.0049670000  0.5991660000 -1.2327630000 -1.4659060000  5.9967610000  0.0000000000
  0.0000010000 -0.0000290000  0.0023950000  0.2488470000 -0.5215690000  1.5677880000 -2.8328390000  1.0000000000
* p-type functions
   18    7
      28563.32000000
       6757.19100000
       2194.65200000
        840.52570000
        357.66660000
        163.75340000
         79.14466000
         39.83858000
         20.58536000
         10.84307000
          5.77796900
          3.04317000
          1.57023900
          0.79497500
          0.38898000
          0.15733500
          0.06658300
          0.02784400
  0.0000430000 -0.0000150000  0.0000040000  0.0000040000  0.0000090000 -0.0000110000  0.0000000000
  0.0001780000 -0.0000610000  0.0000150000  0.0000180000  0.0000360000 -0.0000500000  0.0000000000
  0.0007810000 -0.0002670000  0.0000650000  0.0000810000  0.0001680000 -0.0001900000  0.0000000000
  0.0030620000 -0.0010490000  0.0002520000  0.0003180000  0.0006150000 -0.0008750000  0.0000000000
  0.0107680000 -0.0037070000  0.0008980000  0.0011240000  0.0023560000 -0.0026070000  0.0000000000
  0.0327920000 -0.0114380000  0.0027560000  0.0034680000  0.0066770000 -0.0096130000  0.0000000000
  0.0850360000 -0.0303200000  0.0073760000  0.0092140000  0.0194410000 -0.0209460000  0.0000000000
  0.1785820000 -0.0658710000  0.0159330000  0.0200460000  0.0380200000 -0.0570950000  0.0000000000
  0.2887830000 -0.1106360000  0.0271950000  0.0338840000  0.0743940000 -0.0712500000  0.0000000000
  0.3282520000 -0.1337960000  0.0325940000  0.0412880000  0.0746660000 -0.1585200000  0.0000000000
  0.2104570000 -0.0504700000  0.0118210000  0.0147000000  0.0596980000 -0.0187930000  0.0000000000
  0.0551900000  0.1841380000 -0.0558370000 -0.0662180000 -0.2028460000  0.2409470000  0.0000000000
  0.0018830000  0.3986760000 -0.1156350000 -0.1436870000 -0.3467910000  1.1423850000  0.0000000000
 -0.0016270000  0.3877830000 -0.1386370000 -0.1780180000 -0.4971730000 -1.1366200000  0.0000000000
 -0.0010070000  0.1710070000  0.0022130000 -0.0335830000  1.1593020000 -1.0774880000  0.0000000000
 -0.0000620000  0.0185650000  0.3520420000  0.5764400000  0.4791120000  2.1602070000  0.0000000000
 -0.0000130000 -0.0005590000  0.5411560000  0.5110710000 -0.9455920000 -1.1313370000  0.0000000000
  0.0000020000  0.0004130000  0.2318380000  0.0326320000 -0.0701110000 -0.1706590000  1.0000000000
* d-type functions
   11    5
        244.34700000
         72.29260000
         27.64930000
         11.77780000
          5.33731000
          2.51760000
          1.18881000
          0.54996700
          0.24573800
          0.10450400
          0.04114500
  0.0003510000 -0.0003720000 -0.0005750000 -0.0007310000  0.0000000000
  0.0030850000 -0.0032770000 -0.0050770000 -0.0070950000  0.0000000000
  0.0152580000 -0.0162790000 -0.0255170000 -0.0331860000  0.0000000000
  0.0502450000 -0.0543160000 -0.0868340000 -0.1269420000  0.0000000000
  0.1265230000 -0.1399110000 -0.2285650000 -0.3250860000  0.0000000000
  0.2292800000 -0.2390000000 -0.3376560000 -0.3625000000  0.0000000000
  0.3034060000 -0.2538070000 -0.0917660000  0.6689130000  0.0000000000
  0.3088670000 -0.0303220000  0.6199220000  0.6037430000  0.0000000000
  0.2310890000  0.3839470000  0.3937470000 -1.2164810000  0.0000000000
  0.1037090000  0.4879820000 -0.6029800000  0.2817010000  0.0000000000
  0.0135650000  0.1379380000 -0.2933000000  0.5146800000  1.0000000000
* f-type functions
    3    3
          3.03180000
          0.87330000
          0.25160000
  1.0000000000  0.0000000000  0.0000000000
  0.0000000000  1.0000000000  0.0000000000
  0.0000000000  0.0000000000  1.0000000000
* g-type functions
    2    2
          2.12650000
          0.55640000
  1.0000000000  0.0000000000
  0.0000000000  1.0000000000
* h-type functions
    1    1
          1.28750000
  1.0000000000

/Cr.cc-pVQZ-DK.Balabanov.22s18p11d3f2g1h.8s7p5d3f2g1h.
N.B. Balabanov, K.A. Peterson. J. Chem. Phys. 123 (2005) 064107. doi:10.1063/1.1998907
CHROMIUM (22s,18p,11d,3f,2g,1h) -> [8s,7p,5d,3f,2g,1h]
    24.0   5
* s-type functions
   22    8
   11016640.00000000
    1649423.00000000
     375358.90000000
     106323.60000000
      34689.76000000
      12524.83000000
       4885.75200000
       2026.91800000
        884.36450000
        402.31700000
        189.52710000
         91.86095000
         45.12476000
         20.62512000
         10.31973000
          5.15772300
          2.31262800
          1.10307900
          0.49804200
          0.11824700
          0.05735600
          0.02576000
  0.0000540000 -0.0000300000  0.0000060000 -0.0000010000 -0.0000030000 -0.0000050000 -0.0000050000  0.0000000000
  0.0001540000 -0.0000860000  0.0000180000 -0.0000040000 -0.0000080000 -0.0000130000 -0.0000150000  0.0000000000
  0.0004120000 -0.0002280000  0.0000490000 -0.0000110000 -0.0000220000 -0.0000350000 -0.0000420000  0.0000000000
  0.0010120000 -0.0005620000  0.0001210000 -0.0000280000 -0.0000550000 -0.0000870000 -0.0000990000  0.0000000000
  0.0024600000 -0.0013670000  0.0002940000 -0.0000670000 -0.0001310000 -0.0002080000 -0.0002590000  0.0000000000
  0.0060080000 -0.0033520000  0.0007250000 -0.0001660000 -0.0003380000 -0.0005320000 -0.0005660000  0.0000000000
  0.0148700000 -0.0083390000  0.0018090000 -0.0004120000 -0.0007860000 -0.0012540000 -0.0016830000  0.0000000000
  0.0363090000 -0.0206480000  0.0045400000 -0.0010390000 -0.0021660000 -0.0033990000 -0.0033080000  0.0000000000
  0.0833080000 -0.0485430000  0.0108370000 -0.0024630000 -0.0045870000 -0.0073610000 -0.0107390000  0.0000000000
  0.1673620000 -0.1032880000  0.0241590000 -0.0055480000 -0.0119040000 -0.0186100000 -0.0160340000  0.0000000000
  0.2661030000 -0.1836520000  0.0459620000 -0.0104380000 -0.0184920000 -0.0301280000 -0.0511580000  0.0000000000
  0.2761380000 -0.2426780000  0.0698970000 -0.0162390000 -0.0378720000 -0.0587280000 -0.0331430000  0.0000000000
  0.1429680000 -0.1497000000  0.0466910000 -0.0103850000 -0.0093630000 -0.0190270000 -0.1014980000  0.0000000000
  0.0695690000  0.2061910000 -0.0999290000  0.0224250000  0.0177020000  0.0388480000  0.2332710000  0.0000000000
  0.1153580000  0.5462950000 -0.3685700000  0.0924750000  0.2547990000  0.4187920000  0.2014630000  0.0000000000
  0.0760500000  0.3519330000 -0.3424530000  0.0833650000  0.0707240000  0.1853590000  0.8803140000  0.0000000000
  0.0089700000  0.0434510000  0.2985130000 -0.0821470000 -0.0257070000 -0.5215690000 -3.1030870000  0.0000000000
 -0.0002630000 -0.0034870000  0.6976530000 -0.2590250000 -1.1363580000 -1.8075870000  2.3290390000  0.0000000000
  0.0000710000  0.0000520000  0.2956920000 -0.2041760000  0.6281400000  2.8725050000  0.4451650000  0.0000000000
 -0.0000110000 -0.0001960000  0.0095900000  0.3777770000  1.8833370000 -1.3448820000 -3.8882070000  0.0000000000
  0.0000400000  0.0002860000 -0.0010750000  0.5588970000 -1.3929490000 -0.7200920000  5.5615460000  0.0000000000
  0.0000040000 -0.0000130000  0.0012770000  0.2276850000 -0.4127350000  1.2688570000 -2.7234280000  1.0000000000
* p-type functions
   18    7
      31539.89000000
       7460.23400000
       2422.62200000
        927.75470000
        394.80410000
        180.80270000
         87.42393000
         44.03427000
         22.77704000
         12.01547000
          6.41175100
          3.38113600
          1.74705400
          0.88500400
          0.43302800
          0.17396200
          0.07282300
          0.02995200
  0.0000460000 -0.0000160000  0.0000040000  0.0000050000  0.0000100000 -0.0000130000  0.0000000000
  0.0001840000 -0.0000640000  0.0000150000  0.0000190000  0.0000390000 -0.0000540000  0.0000000000
  0.0007930000 -0.0002750000  0.0000650000  0.0000830000  0.0001790000 -0.0002070000  0.0000000000
  0.0030740000 -0.0010700000  0.0002520000  0.0003250000  0.0006500000 -0.0009320000  0.0000000000
  0.0107650000 -0.0037650000  0.0008930000  0.0011440000  0.0024720000 -0.0027990000  0.0000000000
  0.0327480000 -0.0116070000  0.0027370000  0.0035350000  0.0070230000 -0.0101970000  0.0000000000
  0.0849950000 -0.0308030000  0.0073310000  0.0093750000  0.0204050000 -0.0225810000  0.0000000000
  0.1788510000 -0.0671020000  0.0158860000  0.0205310000  0.0402100000 -0.0608530000  0.0000000000
  0.2896740000 -0.1130240000  0.0271800000  0.0346480000  0.0784580000 -0.0779640000  0.0000000000
  0.3283500000 -0.1359580000  0.0324270000  0.0423890000  0.0794720000 -0.1676820000  0.0000000000
  0.2090050000 -0.0478150000  0.0108710000  0.0133730000  0.0588510000 -0.0107790000  0.0000000000
  0.0543940000  0.1907310000 -0.0565060000 -0.0684010000 -0.2240270000  0.3109570000  0.0000000000
  0.0020050000  0.4011900000 -0.1144660000 -0.1487620000 -0.3702630000  1.0976240000  0.0000000000
 -0.0014380000  0.3827710000 -0.1329640000 -0.1732490000 -0.4376700000 -1.2795560000  0.0000000000
 -0.0009110000  0.1674310000  0.0047140000 -0.0207630000  1.1645370000 -0.8569200000  0.0000000000
 -0.0000520000  0.0180400000  0.3440550000  0.5782720000  0.4154860000  2.0411650000  0.0000000000
 -0.0000120000 -0.0006540000  0.5412790000  0.5031920000 -0.9143280000 -1.1202710000  0.0000000000
  0.0000020000  0.0004160000  0.2403980000  0.0323740000 -0.0627770000 -0.1535980000  1.0000000000
* d-type functions
   11    5
        281.31200000
         83.18850000
         31.83960000
         13.60260000
          6.18298000
          2.92270000
          1.38216000
          0.63946000
          0.28489800
          0.12004500
          0.04622900
  0.0003470000 -0.0003940000 -0.0005630000  0.0007970000  0.0000000000
  0.0030700000 -0.0034940000 -0.0050080000  0.0076390000  0.0000000000
  0.0153950000 -0.0175900000 -0.0254920000  0.0369700000  0.0000000000
  0.0513190000 -0.0596210000 -0.0881820000  0.1424390000  0.0000000000
  0.1296680000 -0.1545140000 -0.2353990000  0.3758710000  0.0000000000
  0.2347810000 -0.2603230000 -0.3396410000  0.3231850000  0.0000000000
  0.3080430000 -0.2500610000 -0.0376150000 -0.8334330000  0.0000000000
  0.3080560000  0.0227810000  0.6602460000 -0.3730540000  0.0000000000
  0.2239250000  0.4192340000  0.2965440000  1.2135530000  0.0000000000
  0.0946790000  0.4520610000 -0.6557610000 -0.4829450000  0.0000000000
  0.0106850000  0.1033980000 -0.2399970000 -0.3748760000  1.0000000000
* f-type functions
    3    3
          3.72890000
          1.08240000
          0.31420000
  1.0000000000  0.0000000000  0.0000000000
  0.0000000000  1.0000000000  0.0000000000
  0.0000000000  0.0000000000  1.0000000000
* g-type functions
    2    2
          2.58800000
          0.68480000
  1.0000000000  0.0000000000
  0.0000000000  1.0000000000
* h-type functions
    1    1
          1.64720000
  1.0000000000

/Mn.cc-pVQZ-DK.Balabanov.22s18p11d3f2g1h.8s7p5d3f2g1h.
N.B. Balabanov, K.A. Peterson. J. Chem. Phys. 123 (2005) 064107. doi:10.1063/1.1998907
MANGANESE (22s,18p,11d,3f,2g,1h) -> [8s,7p,5d,3f,2g,1h]
    25.0   5
* s-type functions
   22    8
   12210500.00000000
    1828157.00000000
     416030.30000000
     117843.60000000
      38448.14000000
      13881.71000000
       5415.00200000
       2246.46000000
        980.14630000
        445.89520000
        210.05580000
        101.80460000
         50.01126000
         22.93939000
         11.52264000
          5.77633800
          2.62595900
          1.26032200
          0.57713000
          0.13658200
          0.06353500
          0.02852100
  0.0000580000 -0.0000280000  0.0000070000 -0.0000020000 -0.0000030000 -0.0000050000 -0.0000060000  0.0000000000
  0.0001650000 -0.0000790000  0.0000190000 -0.0000040000 -0.0000090000 -0.0000140000 -0.0000160000  0.0000000000
  0.0004380000 -0.0002090000  0.0000510000 -0.0000110000 -0.0000230000 -0.0000370000 -0.0000440000  0.0000000000
  0.0010700000 -0.0005120000  0.0001250000 -0.0000280000 -0.0000570000 -0.0000910000 -0.0001040000  0.0000000000
  0.0025760000 -0.0012360000  0.0003020000 -0.0000670000 -0.0001340000 -0.0002130000 -0.0002660000  0.0000000000
  0.0062270000 -0.0030000000  0.0007350000 -0.0001640000 -0.0003410000 -0.0005440000 -0.0005870000  0.0000000000
  0.0152550000 -0.0073920000  0.0018160000 -0.0004050000 -0.0007900000 -0.0012540000 -0.0016770000  0.0000000000
  0.0369930000 -0.0181990000  0.0045200000 -0.0010090000 -0.0021450000 -0.0034240000 -0.0034070000  0.0000000000
  0.0847020000 -0.0427750000  0.0107630000 -0.0023990000 -0.0045600000 -0.0072400000 -0.0105060000  0.0000000000
  0.1707500000 -0.0916740000  0.0239650000 -0.0053570000 -0.0117340000 -0.0187740000 -0.0167510000  0.0000000000
  0.2743970000 -0.1657000000  0.0458380000 -0.0102290000 -0.0185180000 -0.0294560000 -0.0495550000  0.0000000000
  0.2920430000 -0.2259060000  0.0701710000 -0.0157930000 -0.0375870000 -0.0606780000 -0.0381420000  0.0000000000
  0.1562220000 -0.1460020000  0.0489920000 -0.0109470000 -0.0109190000 -0.0172460000 -0.0951520000  0.0000000000
  0.0570620000  0.2013410000 -0.0969430000  0.0218960000  0.0172930000  0.0278370000  0.2112910000  0.0000000000
  0.0808350000  0.5511090000 -0.3667830000  0.0881540000  0.2491810000  0.4339450000  0.2315620000  0.0000000000
  0.0554240000  0.3649400000 -0.3506890000  0.0858360000  0.0803670000  0.1645920000  0.8752810000  0.0000000000
  0.0066290000  0.0468620000  0.2826890000 -0.0805790000 -0.0187700000 -0.4097160000 -2.9729550000  0.0000000000
 -0.0002790000 -0.0049100000  0.6877440000 -0.2334220000 -1.0968980000 -1.9645600000  1.9405330000  0.0000000000
 -0.0000720000 -0.0008110000  0.3208270000 -0.2180350000  0.5280050000  2.8395490000  0.8065440000  0.0000000000
 -0.0000030000 -0.0002310000  0.0142970000  0.3213000000  1.8057720000 -0.9662380000 -3.8652740000  0.0000000000
  0.0000180000  0.0002610000 -0.0039610000  0.5871860000 -1.1683710000 -1.1393420000  5.3654950000  0.0000000000
  0.0000040000 -0.0000190000  0.0021530000  0.2516040000 -0.5016020000  1.4039150000 -2.6454650000  1.0000000000
* p-type functions
   18    7
      35005.12000000
       8279.46200000
       2688.46500000
       1029.49000000
        438.07080000
        200.61530000
         97.00769000
         48.87052000
         25.29281000
         13.35382000
          7.13178600
          3.76436500
          1.94626500
          0.98545500
          0.48186500
          0.18822219
          0.07753957
          0.03154945
[...]
  0.0000100000 -0.0000575000  0.0011976000  0.2341486000  0.0000000000  0.0000000000  1.0000000000
* p-type functions
   16    6
      25570.41800000
       6052.92370000
       1965.70020000
        751.77229000
        318.68140000
        145.14749000
         69.54116200
         34.45137600
         17.46061000
          8.80860900
          4.37864600
          2.14440500
          1.02935000
          0.40463600
          0.16562200
          0.06561000
  0.0002043000 -0.0000801000  0.0000178000  0.0000000000  0.0000000000  0.0000000000
  0.0008448000 -0.0003324000  0.0000738000  0.0000000000  0.0000000000  0.0000000000
  0.0036482000 -0.0014389000  0.0003210000  0.0000000000  0.0000000000  0.0000000000
  0.0137712000 -0.0054824000  0.0012174000  0.0000000000  0.0000000000  0.0000000000
  0.0452467000 -0.0182841000  0.0040936000  0.0000000000  0.0000000000  0.0000000000
  0.1216992000 -0.0508440000  0.0113436000  0.0000000000  0.0000000000  0.0000000000
  0.2509195000 -0.1093204000  0.0247398000  0.0000000000  0.0000000000  0.0000000000
  0.3593791000 -0.1665310000  0.0374810000  0.0000000000  0.0000000000  0.0000000000
  0.2908093000 -0.1119705000  0.0252354000  0.0000000000  0.0000000000  0.0000000000
  0.0964509000  0.1582078000 -0.0462849000  0.0000000000  0.0000000000  0.0000000000
  0.0084783000  0.4394225000 -0.1172897000  0.0000000000  0.0000000000  0.0000000000
  0.0013971000  0.4147421000 -0.1395291000  0.0000000000  0.0000000000  0.0000000000
 -0.0000365000  0.1396396000  0.0036001000  0.0000000000  0.0000000000  0.0000000000
  0.0000891000  0.0083755000  0.3638996000  1.0000000000  0.0000000000  0.0000000000
 -0.0000409000 -0.0001694000  0.5356268000  0.0000000000  1.0000000000  0.0000000000
  0.0000111000  0.0000697000  0.2331420000  0.0000000000  0.0000000000  1.0000000000
* d-type functions
   12    4
        996.97960000
        300.98518000
        117.23473000
         51.95690400
         24.68944000
         12.29517100
          6.24465200
          3.15546000
          1.56804900
          0.74864700
          0.31912500
          0.13000000
  0.0001786000  0.0000000000  0.0000000000  0.0000000000
  0.0015025000  0.0000000000  0.0000000000  0.0000000000
  0.0082298000  0.0000000000  0.0000000000  0.0000000000
  0.0311597000  0.0000000000  0.0000000000  0.0000000000
  0.0876325000  0.0000000000  0.0000000000  0.0000000000
  0.1843352000  0.0000000000  0.0000000000  0.0000000000
  0.2794446000  0.0000000000  0.0000000000  0.0000000000
  0.3157554000  0.0000000000  0.0000000000  0.0000000000
  0.2578297000  0.0000000000  0.0000000000  0.0000000000
  0.1268868000  1.0000000000  0.0000000000  0.0000000000
  0.0235772000  0.0000000000  1.0000000000  0.0000000000
  0.0003571000  0.0000000000  0.0000000000  1.0000000000
* f-type functions
    2    2
          0.26400000
          0.64400000
  1.0000000000  0.0000000000
  0.0000000000  1.0000000000
* g-type functions
    1    1
          0.54650000
  1.0000000000

/Se.cc-pVQZ-DK.de_Jong.21s16p12d2f1g.7s6p4d2f1g.
W.A. de Jong, R.J. Harrison, D.A. Dixon. J. Chem. Phys. 114 (2001) 48. doi:10.1063/1.1329891
SELENIUM (21s,16p,12d,2f,1g) -> [7s,6p,4d,2f,1g]
    34.0   4
* s-type functions
   21    7
   15011000.00000000
    2247500.00000000
     511450.00000000
     144870.00000000
      47261.00000000
      17062.00000000
       6654.50000000
       2759.80000000
       1203.20000000
        546.53000000
        256.63000000
        123.14000000
         58.26300000
         29.02300000
         14.46500000
          6.93480000
          3.32990000
          1.56000000
          0.49291000
          0.23525000
          0.10037000
  0.0001303000 -0.0000419000  0.0000165000 -0.0000049000  0.0000000000  0.0000000000  0.0000000000
  0.0003610000 -0.0001161000  0.0000459000 -0.0000135000  0.0000000000  0.0000000000  0.0000000000
  0.0009384000 -0.0003023000  0.0001194000 -0.0000350000  0.0000000000  0.0000000000  0.0000000000
  0.0022332000 -0.0007214000  0.0002850000 -0.0000836000  0.0000000000  0.0000000000  0.0000000000
  0.0052164000 -0.0016930000  0.0006694000 -0.0001966000  0.0000000000  0.0000000000  0.0000000000
  0.0121422000 -0.0039731000  0.0015720000 -0.0004610000  0.0000000000  0.0000000000  0.0000000000
  0.0284669000 -0.0094577000  0.0037516000 -0.0011032000  0.0000000000  0.0000000000  0.0000000000
  0.0656505000 -0.0224521000  0.0089320000 -0.0026187000  0.0000000000  0.0000000000  0.0000000000
  0.1408188000 -0.0510721000  0.0204985000 -0.0060460000  0.0000000000  0.0000000000  0.0000000000
  0.2559985000 -0.1044447000  0.0425223000 -0.0124885000  0.0000000000  0.0000000000  0.0000000000
  0.3390371000 -0.1739596000  0.0733281000 -0.0218509000  0.0000000000  0.0000000000  0.0000000000
  0.2506722000 -0.1764504000  0.0781782000 -0.0230412000  0.0000000000  0.0000000000  0.0000000000
  0.0625857000  0.0676008000 -0.0349730000  0.0098807000  0.0000000000  0.0000000000  0.0000000000
 -0.0003178000  0.5042927000 -0.3325539000  0.1074920000  0.0000000000  0.0000000000  0.0000000000
  0.0015954000  0.4849518000 -0.4650068000  0.1523472000  0.0000000000  0.0000000000  0.0000000000
 -0.0007685000  0.1062494000  0.0975826000 -0.0345796000  0.0000000000  0.0000000000  0.0000000000
  0.0003278000  0.0018677000  0.7248941000 -0.3461549000  0.0000000000  0.0000000000  0.0000000000
 -0.0001531000  0.0016392000  0.4346646000 -0.3630380000  0.0000000000  0.0000000000  0.0000000000
  0.0000622000 -0.0003538000  0.0239777000  0.3746228000  1.0000000000  0.0000000000  0.0000000000
 -0.0000370000  0.0001800000 -0.0052172000  0.6415808000  0.0000000000  1.0000000000  0.0000000000
  0.0000100000 -0.0000549000  0.0012457000  0.2336294000  0.0000000000  0.0000000000  1.0000000000
* p-type functions
   16    6
      25217.00000000
       5969.90000000
       1938.90000000
        741.66000000
        314.50000000
        143.31000000
         68.65000000
         33.99500000
         17.18500000
          8.57400000
          4.22060000
          2.05210000
          0.96156000
          0.42151000
          0.17626000
          0.07066300
  0.0002334000 -0.0000929000  0.0000224000  0.0000000000  0.0000000000  0.0000000000
  0.0009661000 -0.0003857000  0.0000931000  0.0000000000  0.0000000000  0.0000000000
  0.0041635000 -0.0016666000  0.0004028000  0.0000000000  0.0000000000  0.0000000000
  0.0156292000 -0.0063216000  0.0015268000  0.0000000000  0.0000000000  0.0000000000
  0.0508446000 -0.0208964000  0.0050679000  0.0000000000  0.0000000000  0.0000000000
  0.1342348000 -0.0571845000  0.0138956000  0.0000000000  0.0000000000  0.0000000000
  0.2687028000 -0.1195375000  0.0293016000  0.0000000000  0.0000000000  0.0000000000
  0.3654719000 -0.1730980000  0.0426207000  0.0000000000  0.0000000000  0.0000000000
  0.2695391000 -0.0894815000  0.0205713000  0.0000000000  0.0000000000  0.0000000000
  0.0766748000  0.2131136000 -0.0655065000  0.0000000000  0.0000000000  0.0000000000
  0.0049392000  0.4744642000 -0.1440456000  0.0000000000  0.0000000000  0.0000000000
  0.0012847000  0.3768487000 -0.1416899000  0.0000000000  0.0000000000  0.0000000000
 -0.0001905000  0.0889947000  0.0680594000  0.0000000000  0.0000000000  0.0000000000
  0.0001212000  0.0024516000  0.4121392000  1.0000000000  0.0000000000  0.0000000000
 -0.0000579000  0.0011366000  0.4942312000  0.0000000000  1.0000000000  0.0000000000
  0.0000134000 -0.0000742000  0.1941534000  0.0000000000  0.0000000000  1.0000000000
* d-type functions
   12    4
       1143.40000000
        345.33000000
        134.46000000
         59.56700000
         28.28300000
         14.06100000
          7.13900000
          3.61480000
          1.80720000
          0.86944000
          0.37036000
          0.15300000
  0.0001630000  0.0000000000  0.0000000000  0.0000000000
  0.0013598000  0.0000000000  0.0000000000  0.0000000000
  0.0075189000  0.0000000000  0.0000000000  0.0000000000
  0.0290814000  0.0000000000  0.0000000000  0.0000000000
  0.0837798000  0.0000000000  0.0000000000  0.0000000000
  0.1811677000  0.0000000000  0.0000000000  0.0000000000
  0.2812152000  0.0000000000  0.0000000000  0.0000000000
  0.3214168000  0.0000000000  0.0000000000  0.0000000000
  0.2588963000  0.0000000000  0.0000000000  0.0000000000
  0.1208520000  1.0000000000  0.0000000000  0.0000000000
  0.0203357000  0.0000000000  1.0000000000  0.0000000000
  0.0003005000  0.0000000000  0.0000000000  1.0000000000
* f-type functions
    2    2
          0.28400000
          0.70970000
  1.0000000000  0.0000000000
  0.0000000000  1.0000000000
* g-type functions
    1    1
          0.57300000
  1.0000000000

/Br.cc-pVQZ-DK.de_Jong.21s16p12d2f1g.7s6p4d2f1g.
W.A. de Jong, R.J. Harrison, D.A. Dixon. J. Chem. Phys. 114 (2001) 48. doi:10.1063/1.1329891
BROMINE (21s,16p,12d,2f,1g) -> [7s,6p,4d,2f,1g]
    35.0   4
* s-type functions
   21    7
   16475000.00000000
    2466600.00000000
     561310.00000000
     158990.00000000
      51869.00000000
      18726.00000000
       7303.60000000
       3029.10000000
       1320.80000000
        600.03000000
        281.90000000
        135.54000000
         64.87000000
         32.12900000
         16.03700000
          7.78490000
          3.72470000
          1.75830000
          0.58331000
          0.27856000
          0.11829000
  0.0001329000 -0.0000429000  0.0000171000 -0.0000053000  0.0000000000  0.0000000000  0.0000000000
  0.0003668000 -0.0001185000  0.0000473000 -0.0000145000  0.0000000000  0.0000000000  0.0000000000
  0.0009494000 -0.0003072000  0.0001226000 -0.0000377000  0.0000000000  0.0000000000  0.0000000000
  0.0022461000 -0.0007289000  0.0002908000 -0.0000894000  0.0000000000  0.0000000000  0.0000000000
  0.0052073000 -0.0016976000  0.0006779000 -0.0002085000  0.0000000000  0.0000000000  0.0000000000
  0.0120104000 -0.0039484000  0.0015780000 -0.0004847000  0.0000000000  0.0000000000  0.0000000000
  0.0279010000 -0.0093084000  0.0037286000 -0.0011486000  0.0000000000  0.0000000000  0.0000000000
  0.0638973000 -0.0219410000  0.0088178000 -0.0027081000  0.0000000000  0.0000000000  0.0000000000
  0.1368623000 -0.0497226000  0.0201457000 -0.0062245000  0.0000000000  0.0000000000  0.0000000000
  0.2502349000 -0.1019813000  0.0419299000 -0.0129000000  0.0000000000  0.0000000000  0.0000000000
  0.3368755000 -0.1711437000  0.0727123000 -0.0226984000  0.0000000000  0.0000000000  0.0000000000
  0.2577522000 -0.1802775000  0.0806250000 -0.0249048000  0.0000000000  0.0000000000  0.0000000000
  0.0695754000  0.0473692000 -0.0252254000  0.0072616000  0.0000000000  0.0000000000  0.0000000000
  0.0007984000  0.4879628000 -0.3199661000  0.1083844000  0.0000000000  0.0000000000  0.0000000000
  0.0014489000  0.5006495000 -0.4794888000  0.1650089000  0.0000000000  0.0000000000  0.0000000000
 -0.0007014000  0.1208402000  0.0572749000 -0.0201229000  0.0000000000  0.0000000000  0.0000000000
  0.0002926000  0.0032118000  0.7253427000 -0.3644571000  0.0000000000  0.0000000000  0.0000000000
 -0.0001453000  0.0015939000  0.4588536000 -0.3967725000  0.0000000000  0.0000000000  0.0000000000
  0.0000604000 -0.0003606000  0.0279353000  0.3718905000  1.0000000000  0.0000000000  0.0000000000
 -0.0000342000  0.0001623000 -0.0051953000  0.6602194000  0.0000000000  1.0000000000  0.0000000000
  0.0000092000 -0.0000526000  0.0012894000  0.2357393000  0.0000000000  0.0000000000  1.0000000000
* p-type functions
   16    6
      26607.00000000
       6298.20000000
       2045.20000000
        782.16000000
        331.63000000
        151.11000000
         72.39200000
         35.86200000
         18.13400000
          9.04300000
          4.45000000
          2.16610000
          0.99628000
          0.45443000
          0.19404000
          0.07899700
  0.0002461000 -0.0000993000  0.0000257000  0.0000000000  0.0000000000  0.0000000000
  0.0010035000 -0.0004062000  0.0001050000  0.0000000000  0.0000000000  0.0000000000
  0.0042844000 -0.0017392000  0.0004497000  0.0000000000  0.0000000000  0.0000000000
  0.0159811000 -0.0065556000  0.0016974000  0.0000000000  0.0000000000  0.0000000000
  0.0518132000 -0.0216064000  0.0056053000  0.0000000000  0.0000000000  0.0000000000
  0.1363384000 -0.0589530000  0.0153694000  0.0000000000  0.0000000000  0.0000000000
  0.2717214000 -0.1228123000  0.0322002000  0.0000000000  0.0000000000  0.0000000000
  0.3662189000 -0.1761001000  0.0466542000  0.0000000000  0.0000000000  0.0000000000
  0.2655160000 -0.0853725000  0.0202782000  0.0000000000  0.0000000000  0.0000000000
  0.0736289000  0.2264412000 -0.0742025000  0.0000000000  0.0000000000  0.0000000000
  0.0044829000  0.4859297000 -0.1630600000  0.0000000000  0.0000000000  0.0000000000
  0.0012090000  0.3651096000 -0.1454754000  0.0000000000  0.0000000000  0.0000000000
 -0.0002215000  0.0748584000  0.1117576000  0.0000000000  0.0000000000  0.0000000000
  0.0001252000  0.0007458000  0.4356882000  1.0000000000  0.0000000000  0.0000000000
 -0.0000655000  0.0017219000  0.4650380000  0.0000000000  1.0000000000  0.0000000000
  0.0000128000 -0.0000490000  0.1684077000  0.0000000000  0.0000000000  1.0000000000
* d-type functions
   12    4
       1289.60000000
        389.75000000
        151.76000000
         67.22300000
         31.91300000
         15.85700000
          8.05450000
          4.08870000
          2.05560000
          0.99509000
          0.42313000
          0.17790000
  0.0001527000  0.0000000000  0.0000000000  0.0000000000
  0.0012619000  0.0000000000  0.0000000000  0.0000000000
  0.0070154000  0.0000000000  0.0000000000  0.0000000000
  0.0275756000  0.0000000000  0.0000000000  0.0000000000
  0.0809015000  0.0000000000  0.0000000000  0.0000000000
  0.1786691000  0.0000000000  0.0000000000  0.0000000000
  0.2826135000  0.0000000000  0.0000000000  0.0000000000
  0.3259893000  0.0000000000  0.0000000000  0.0000000000
  0.2592316000  0.0000000000  0.0000000000  0.0000000000
  0.1156116000  1.0000000000  0.0000000000  0.0000000000
  0.0179947000  0.0000000000  1.0000000000  0.0000000000
  0.0002568000  0.0000000000  0.0000000000  1.0000000000
* f-type functions
    2    2
          0.34070000
          0.82570000
  1.0000000000  0.0000000000
  0.0000000000  1.0000000000
* g-type functions
    1    1
          0.64910000
  1.0000000000

/Kr.cc-pVQZ-DK.de_Jong.21s16p12d2f1g.7s6p4d2f1g.
W.A. de Jong, R.J. Harrison, D.A. Dixon. J. Chem. Phys. 114 (2001) 48. doi:10.1063/1.1329891
KRYPTON (21s,16p,12d,2f,1g) -> [7s,6p,4d,2f,1g]
    36.0   4
* s-type functions
   21    7
   18226108.00000000
    2728802.50000000
     620997.71000000
     175899.58000000
      57387.49700000
      20717.18100000
       8078.88990000
       3349.51700000
       1459.78120000
        662.89391000
        311.39215000
        149.93751000
         72.49824900
         35.56935400
         17.76663300
          8.71238300
          4.14497100
          1.96964900
          0.67995200
          0.32450200
          0.13744100
  0.0001346000 -0.0000436000  0.0000176000 -0.0000056000  0.0000000000  0.0000000000  0.0000000000
  0.0003699000 -0.0001200000  0.0000483000 -0.0000154000  0.0000000000  0.0000000000  0.0000000000
  0.0009532000 -0.0003098000  0.0001248000 -0.0000398000  0.0000000000  0.0000000000  0.0000000000
  0.0022414000 -0.0007306000  0.0002943000 -0.0000939000  0.0000000000  0.0000000000  0.0000000000
  0.0051564000 -0.0016882000  0.0006806000 -0.0002175000  0.0000000000  0.0000000000  0.0000000000
  0.0117831000 -0.0038910000  0.0015702000 -0.0005010000  0.0000000000  0.0000000000  0.0000000000
  0.0271181000 -0.0090818000  0.0036720000 -0.0011749000  0.0000000000  0.0000000000  0.0000000000
  0.0617018000 -0.0212637000  0.0086288000 -0.0027527000  0.0000000000  0.0000000000  0.0000000000
  0.1320938000 -0.0480311000  0.0196348000 -0.0063013000  0.0000000000  0.0000000000  0.0000000000
  0.2433513000 -0.0989321000  0.0410530000 -0.0131196000  0.0000000000  0.0000000000  0.0000000000
  0.3342231000 -0.1676847000  0.0717503000 -0.0232625000  0.0000000000  0.0000000000  0.0000000000
  0.2660010000 -0.1842099000  0.0830652000 -0.0266687000  0.0000000000  0.0000000000  0.0000000000
  0.0783391000  0.0259546000 -0.0147751000  0.0041194000  0.0000000000  0.0000000000  0.0000000000
  0.0022830000  0.4697271000 -0.3060106000  0.1076512000  0.0000000000  0.0000000000  0.0000000000
  0.0012440000  0.5159235000 -0.4924458000  0.1764312000  0.0000000000  0.0000000000  0.0000000000
 -0.0006064000  0.1369852000  0.0173704000 -0.0044879000  0.0000000000  0.0000000000  0.0000000000
  0.0002445000  0.0048179000  0.7241199000 -0.3791695000  0.0000000000  0.0000000000  0.0000000000
 -0.0001311000  0.0015158000  0.4816145000 -0.4281149000  0.0000000000  0.0000000000  0.0000000000
  0.0000559000 -0.0003614000  0.0321147000  0.3671154000  1.0000000000  0.0000000000  0.0000000000
 -0.0000301000  0.0001411000 -0.0051429000  0.6771771000  0.0000000000  1.0000000000  0.0000000000
  0.0000081000 -0.0000501000  0.0013489000  0.2391041000  0.0000000000  0.0000000000  1.0000000000
* p-type functions
   16    6
      28600.83100000
       6770.99120000
       2199.04890000
        841.17957000
        356.76633000
        162.63620000
         77.96603500
         38.66148900
         19.57679100
          9.79176100
          4.83538300
          2.36812500
          1.08999600
          0.50458800
          0.21845500
          0.08995900
  0.0002534000 -0.0001036000  0.0000281000  0.0000000000  0.0000000000  0.0000000000
  0.0010131000 -0.0004157000  0.0001129000  0.0000000000  0.0000000000  0.0000000000
  0.0042729000 -0.0017585000  0.0004774000  0.0000000000  0.0000000000  0.0000000000
  0.0158146000 -0.0065757000  0.0017895000  0.0000000000  0.0000000000  0.0000000000
  0.0511469000 -0.0216222000  0.0058901000  0.0000000000  0.0000000000  0.0000000000
  0.1347035000 -0.0590317000  0.0161827000  0.0000000000  0.0000000000  0.0000000000
  0.2695313000 -0.1235313000  0.0340172000  0.0000000000  0.0000000000  0.0000000000
  0.3656351000 -0.1782107000  0.0497318000  0.0000000000  0.0000000000  0.0000000000
  0.2680330000 -0.0889368000  0.0220555000  0.0000000000  0.0000000000  0.0000000000
  0.0758652000  0.2246505000 -0.0778025000  0.0000000000  0.0000000000  0.0000000000
  0.0047626000  0.4903919000 -0.1765263000  0.0000000000  0.0000000000  0.0000000000
  0.0011771000  0.3649839000 -0.1520689000  0.0000000000  0.0000000000  0.0000000000
 -0.0002294000  0.0721021000  0.1361487000  0.0000000000  0.0000000000  0.0000000000
  0.0001345000 -0.0001224000  0.4495209000  1.0000000000  0.0000000000  0.0000000000
 -0.0000585000  0.0012477000  0.4481805000  0.0000000000  1.0000000000  0.0000000000
  0.0000160000 -0.0002527000  0.1533145000  0.0000000000  0.0000000000  1.0000000000
* d-type functions
   12    4
       1437.77920000
        434.26846000
        168.92699000
         74.77753500
         35.51602400
         17.67105100
          9.00461100
          4.59477300
          2.32648600
          1.13324700
          0.48130700
          0.20530000
  0.0001457000  0.0000000000  0.0000000000  0.0000000000
  0.0011947000  0.0000000000  0.0000000000  0.0000000000
  0.0066778000  0.0000000000  0.0000000000  0.0000000000
  0.0265666000  0.0000000000  0.0000000000  0.0000000000
  0.0788804000  0.0000000000  0.0000000000  0.0000000000
  0.1764128000  0.0000000000  0.0000000000  0.0000000000
  0.2825681000  0.0000000000  0.0000000000  0.0000000000
  0.3287200000  0.0000000000  0.0000000000  0.0000000000
  0.2596116000  0.0000000000  0.0000000000  0.0000000000
  0.1123040000  1.0000000000  0.0000000000  0.0000000000
  0.0165833000  0.0000000000  1.0000000000  0.0000000000
  0.0002325000  0.0000000000  0.0000000000  1.0000000000
* f-type functions
    2    2
          0.41300000
          0.95570000
  1.0000000000  0.0000000000
  0.0000000000  1.0000000000
* g-type functions
    1    1
          0.73950000
  1.0000000000
