************************************************************************
* This file is part of OpenMolcas.                                     *
*                                                                      *
* OpenMolcas is free software; you can redistribute it and/or modify   *
* it under the terms of the GNU Lesser General Public License, v. 2.1. *
* OpenMolcas is distributed in the hope that it will be useful, but it *
* is provided "as is" and without any express or implied warranties.   *
* For more details see the full text of the license in the file        *
* LICENSE or in <http://www.gnu.org/licenses/>.                        *
************************************************************************

#Hamiltonian DKH
#Nucleus UNK
#Contraction CCC
#AllElectron AE_

************************************************************************
* This file has been generated from Basis Set Exchange data:           *
*   https://www.basissetexchange.org                                   *
* Version: 0  (Data from the original Basis Set Exchange)              *
************************************************************************

/Sc.cc-pwCV5Z-DK.Balabanov.30s22p14d5f4g3h2i.11s10p8d5f4g3h2i.
N.B. Balabanov, K.A. Peterson. J. Chem. Phys. 123 (2005) 064107. doi:10.1063/1.1998907
SCANDIUM (30s,22p,14d,5f,4g,3h,2i) -> [11s,10p,8d,5f,4g,3h,2i]
    21.0   6
* s-type functions
   30   11
  119495000.00000000
   21499200.00000000
    4807030.00000000
    1284400.00000000
     396595.00000000
     137575.00000000
      52366.80000000
      21454.90000000
       9316.06000000
       4235.40000000
       1997.44000000
        970.43000000
        483.27100000
        245.80600000
        127.36000000
         67.07880000
         35.83710000
         19.37130000
         10.55710000
          5.77249000
          3.14540000
          1.69249000
          0.88864900
          0.47109300
          0.24928600
          0.09998800
          0.04636900
          0.02160600
          4.39550000
          1.15640000
  5.9195350e-6 -3.3930720e-6  6.6824120e-7 -1.6142740e-7  2.8129870e-7 -4.3123220e-7 -4.8764010e-7  7.5193490e-7  0.0000000000  0.0000000000  0.0000000000
  1.4313590e-5 -8.2051210e-6  1.6160430e-6 -3.9038970e-7  6.8045140e-7 -1.0430950e-6 -1.1779210e-6  1.8207550e-6  0.0000000000  0.0000000000  0.0000000000
  4.1045560e-5 -2.3531440e-5  4.6350620e-6 -1.1196950e-6  1.9506920e-6 -2.9905380e-6 -3.3861400e-6  5.2093440e-6  0.0000000000  0.0000000000  0.0000000000
  9.7974190e-5 -5.6181180e-5  1.1068440e-5 -2.6738360e-6  4.6627090e-6 -7.1472040e-6 -8.0501390e-6  1.2500640e-5  0.0000000000  0.0000000000  0.0000000000
  0.0002223775 -0.0001275595  2.5137950e-5 -6.0725750e-6  1.0569410e-5 -1.6206180e-5 -1.8446520e-5  2.8120460e-5  0.0000000000  0.0000000000  0.0000000000
  0.0004796213 -0.0002752891  0.0000542814 -1.3113310e-5  2.2907270e-5 -3.5104280e-5 -3.9160050e-5  6.1830870e-5  0.0000000000  0.0000000000  0.0000000000
  0.0010205210 -0.0005862466  0.0001156787 -2.7944010e-5  4.8498520e-5 -7.4399040e-5 -8.6016420e-5  0.0001276431  0.0000000000  0.0000000000  0.0000000000
  0.0021751140 -0.0012515530  0.0002473236 -5.9753430e-5  0.0001048147 -0.0001605264 -0.0001749806  0.0002872000  0.0000000000  0.0000000000  0.0000000000
  0.0047136980 -0.0027185890  0.0005382997 -0.0001300308  0.0002245040 -0.0003447100 -0.0004098121  0.0005798599  0.0000000000  0.0000000000  0.0000000000
  0.0103692700 -0.0060087690  0.0011947930 -0.0002887116  0.0005093451 -0.0007794742 -0.0008226440  0.0014233520  0.0000000000  0.0000000000  0.0000000000
  0.0228114300 -0.0133240700  0.0026674070 -0.0006443642  0.0011062940 -0.0017006790 -0.0020829430  0.0028005180  0.0000000000  0.0000000000  0.0000000000
  0.0486800900 -0.0289003600  0.0058668520 -0.0014182170  0.0025162490 -0.0038489940 -0.0039355270  0.0071784410  0.0000000000  0.0000000000  0.0000000000
  0.0969444200 -0.0593094200  0.0123398900 -0.0029822160  0.0050910150 -0.0078413040 -0.0099076110  0.0126481300  0.0000000000  0.0000000000  0.0000000000
  0.1706005000 -0.1107930000  0.0241444300 -0.0058437260  0.0104591400 -0.0160034200 -0.0156190800  0.0308629300  0.0000000000  0.0000000000  0.0000000000
  0.2430080000 -0.1770984000  0.0417897400 -0.0101192200  0.0170637000 -0.0264269300 -0.0357806600  0.0407474500  0.0000000000  0.0000000000  0.0000000000
  0.2384914000 -0.2162084000  0.0578050500 -0.0140604900  0.0259787700 -0.0397741000 -0.0322496000  0.0854742200  0.0000000000  0.0000000000  0.0000000000
  0.1288846000 -0.1469435000  0.0440875300 -0.0107332100  0.0158770300 -0.0254930100 -0.0574503600  0.0175668300  0.0000000000  0.0000000000  0.0000000000
  0.0520744100  0.0639645000 -0.0316345700  0.0076979450 -0.0072903530  0.0129649000  0.0691801300  0.0315359100  0.0000000000  0.0000000000  0.0000000000
  0.0876354300  0.3580420000 -0.1852648000  0.0467181200 -0.0957092700  0.1497257000  0.0643443300 -0.4357717000  0.0000000000  0.0000000000  0.0000000000
  0.1099903000  0.4634064000 -0.3507145000  0.0923654300 -0.1484969000  0.2670537000  0.5933674000 -0.5492452000  0.0000000000  0.0000000000  0.0000000000
  0.0508097800  0.2146780000 -0.2250703000  0.0606934000 -0.1520052000  0.2379641000 -0.1545044000 -0.4585412000  0.0000000000  0.0000000000  0.0000000000
  0.0065208520  0.0274837400  0.2361473000 -0.0751722300  0.2384846000 -0.5490284000 -0.3050918000  4.1915080000  0.0000000000  0.0000000000  0.0000000000
  0.0003956125  0.0005229658  0.5771120000 -0.1934620000  0.3501435000 -1.0568440000 -2.9817180000 -2.5292380000  0.0000000000  0.0000000000  0.0000000000
 -6.1814590e-5 -0.0009373147  0.3995942000 -0.2389696000  0.7548168000 -0.1164882000  4.9770390000 -5.4200720000  0.0000000000  0.0000000000  0.0000000000
  1.2541060e-5 -0.0001398211  0.0819850300 -0.1062082000 -0.8094605000  2.7444610000 -1.0825320000  9.3856740000  0.0000000000  0.0000000000  0.0000000000
 -4.3610280e-6 -1.1230250e-5  0.0037862160  0.3515695000 -1.4805040000 -1.4562880000 -4.2115770000 -8.5529250000  0.0000000000  0.0000000000  0.0000000000
  0.0000105670  3.6711840e-5  0.0018151200  0.6241271000  0.7689142000 -1.5228980000  5.6433950000  6.2316380000  0.0000000000  0.0000000000  0.0000000000
  1.3081600e-6  6.4257950e-6  0.0007437545  0.2261102000  0.7296408000  1.6799440000 -2.6868250000 -2.1734240000  1.0000000000  0.0000000000  0.0000000000
  0.0000000000  0.0000000000  0.0000000000  0.0000000000  0.0000000000  0.0000000000  0.0000000000  0.0000000000  0.0000000000  1.0000000000  0.0000000000
  0.0000000000  0.0000000000  0.0000000000  0.0000000000  0.0000000000  0.0000000000  0.0000000000  0.0000000000  0.0000000000  0.0000000000  1.0000000000
* p-type functions
   22   10
      55070.50000000
      13741.70000000
       4365.40000000
       1642.26000000
        694.06600000
        317.74200000
        153.89900000
         77.76650000
         40.67360000
         21.90610000
         12.07950000
          6.75349000
          3.76321000
          2.04973000
          1.08645000
          0.56408700
          0.28102000
          0.12143200
          0.05334500
          0.02314300
          5.13000000
          1.23150000
  0.0000140000 -0.0000050000 -0.0000010000  0.0000010000  0.0000030000 -0.0000030000 -0.0000050000  0.0000000000  0.0000000000  0.0000000000
  0.0000480000 -0.0000160000 -0.0000040000  0.0000050000  0.0000090000 -0.0000120000 -0.0000160000  0.0000000000  0.0000000000  0.0000000000
  0.0002020000 -0.0000660000 -0.0000160000  0.0000200000  0.0000410000 -0.0000410000 -0.0000700000  0.0000000000  0.0000000000  0.0000000000
  0.0007550000 -0.0002480000 -0.0000600000  0.0000740000  0.0001420000 -0.0002080000 -0.0002610000  0.0000000000  0.0000000000  0.0000000000
  0.0026780000 -0.0008820000 -0.0002160000  0.0002620000  0.0005460000 -0.0005200000 -0.0009290000  0.0000000000  0.0000000000  0.0000000000
  0.0085560000 -0.0028300000 -0.0006880000  0.0008430000  0.0016140000 -0.0024110000 -0.0029870000  0.0000000000  0.0000000000  0.0000000000
  0.0245140000 -0.0081890000 -0.0020050000  0.0024310000  0.0050860000 -0.0047120000 -0.0086890000  0.0000000000  0.0000000000  0.0000000000
  0.0617000000 -0.0209720000 -0.0051070000  0.0062550000  0.0118990000 -0.0181750000 -0.0225240000  0.0000000000  0.0000000000  0.0000000000
  0.1309760000 -0.0457600000 -0.0112560000  0.0136160000  0.0287890000 -0.0243790000 -0.0494670000  0.0000000000  0.0000000000  0.0000000000
  0.2216990000 -0.0797890000 -0.0194870000  0.0239330000  0.0441380000 -0.0766640000 -0.0860160000  0.0000000000  0.0000000000  0.0000000000
  0.2929820000 -0.1104030000 -0.0275520000  0.0330500000  0.0761020000 -0.0436370000 -0.1162080000  0.0000000000  0.0000000000  0.0000000000
  0.2755820000 -0.1073290000 -0.0261990000  0.0328270000  0.0560570000 -0.1925250000 -0.1761440000  0.0000000000  0.0000000000  0.0000000000
  0.1467940000  0.0005330000  0.0018280000 -0.0025620000  0.0243250000  0.1326390000  0.0102780000  0.0000000000  0.0000000000  0.0000000000
  0.0316730000  0.2185950000  0.0650400000 -0.0748050000 -0.2171150000  0.1135500000  1.2619260000  0.0000000000  0.0000000000  0.0000000000
  0.0001230000  0.3923630000  0.1153720000 -0.1376450000 -0.3703350000  1.3669040000  0.2599850000  0.0000000000  0.0000000000  0.0000000000
 -0.0016080000  0.3629300000  0.1375210000 -0.1704280000 -0.4435200000 -1.5617250000 -3.7739520000  0.0000000000  0.0000000000  0.0000000000
 -0.0008200000  0.1490230000 -0.0077520000 -0.0478640000  1.2379380000 -0.8936100000  4.5043640000  0.0000000000  0.0000000000  0.0000000000
 -0.0000640000  0.0150900000 -0.3617510000  0.5835210000  0.4129960000  2.2910790000 -2.6297080000  0.0000000000  0.0000000000  0.0000000000
 -0.0000110000  0.0005720000 -0.5419820000  0.5151680000 -0.9400080000 -1.2338460000  0.5247230000  0.0000000000  0.0000000000  0.0000000000
  0.0000010000  0.0001500000 -0.2157750000  0.0321190000 -0.0744090000 -0.1540420000  0.4457160000  1.0000000000  0.0000000000  0.0000000000
  0.0000000000  0.0000000000  0.0000000000  0.0000000000  0.0000000000  0.0000000000  0.0000000000  0.0000000000  1.0000000000  0.0000000000
  0.0000000000  0.0000000000  0.0000000000  0.0000000000  0.0000000000  0.0000000000  0.0000000000  0.0000000000  0.0000000000  1.0000000000
* d-type functions
   14    8
        206.84900000
         60.99770000
         23.30850000
          9.92881000
          4.48670000
          2.12632000
          1.02008000
          0.48537300
          0.22719800
          0.10420400
          0.04683500
          0.02025900
          2.64910000
          1.41020000
  0.0002450000 -0.0002520000 -0.0003270000 -0.0004720000 -0.0005390000  0.0000000000  0.0000000000  0.0000000000
  0.0021780000 -0.0022360000 -0.0028490000 -0.0038040000 -0.0068390000  0.0000000000  0.0000000000  0.0000000000
  0.0108150000 -0.0111280000 -0.0145650000 -0.0209510000 -0.0259800000  0.0000000000  0.0000000000  0.0000000000
  0.0355520000 -0.0368300000 -0.0472320000 -0.0644210000 -0.1209740000  0.0000000000  0.0000000000  0.0000000000
  0.0918530000 -0.0965200000 -0.1264930000 -0.1927550000 -0.2394840000  0.0000000000  0.0000000000  0.0000000000
  0.1773870000 -0.1818110000 -0.2349220000 -0.3074170000 -0.6282700000  0.0000000000  0.0000000000  0.0000000000
  0.2535140000 -0.2453530000 -0.2844630000 -0.2835280000  0.9521130000  0.0000000000  0.0000000000  0.0000000000
  0.2911880000 -0.2113190000  0.0738220000  1.0750720000  0.6713530000  0.0000000000  0.0000000000  0.0000000000
  0.2739590000  0.0933260000  0.7433150000  0.0383790000 -2.1441440000  0.0000000000  0.0000000000  0.0000000000
  0.1939380000  0.4634600000  0.1237380000 -1.2564750000  1.9275440000  0.0000000000  0.0000000000  0.0000000000
  0.0750160000  0.3871780000 -0.6748410000  0.7662620000 -0.6275630000  0.0000000000  0.0000000000  0.0000000000
  0.0064740000  0.0669870000 -0.1808950000  0.2274470000 -0.2338320000  1.0000000000  0.0000000000  0.0000000000
  0.0000000000  0.0000000000  0.0000000000  0.0000000000  0.0000000000  0.0000000000  1.0000000000  0.0000000000
  0.0000000000  0.0000000000  0.0000000000  0.0000000000  0.0000000000  0.0000000000  0.0000000000  1.0000000000
* f-type functions
    5    5
          3.59890000
          1.51450000
          0.63730000
          0.26820000
          0.08090000
  1.0000000000  0.0000000000  0.0000000000  0.0000000000  0.0000000000
  0.0000000000  1.0000000000  0.0000000000  0.0000000000  0.0000000000
  0.0000000000  0.0000000000  1.0000000000  0.0000000000  0.0000000000
  0.0000000000  0.0000000000  0.0000000000  1.0000000000  0.0000000000
  0.0000000000  0.0000000000  0.0000000000  0.0000000000  1.0000000000
* g-type functions
    4    4
          3.16180000
          1.37360000
          0.59680000
          0.17110000
  1.0000000000  0.0000000000  0.0000000000  0.0000000000
  0.0000000000  1.0000000000  0.0000000000  0.0000000000
  0.0000000000  0.0000000000  1.0000000000  0.0000000000
  0.0000000000  0.0000000000  0.0000000000  1.0000000000
* h-type functions
    3    3
          2.94410000
          1.16350000
          0.32900000
  1.0000000000  0.0000000000  0.0000000000
  0.0000000000  1.0000000000  0.0000000000
  0.0000000000  0.0000000000  1.0000000000
* i-type functions
    2    2
          3.11500000
          1.16820000
  1.0000000000  0.0000000000
  0.0000000000  1.0000000000

/Ti.cc-pwCV5Z-DK.Balabanov.30s22p14d5f4g3h2i.11s10p8d5f4g3h2i.
N.B. Balabanov, K.A. Peterson. J. Chem. Phys. 123 (2005) 064107. doi:10.1063/1.1998907
TITANIUM (30s,22p,14d,5f,4g,3h,2i) -> [11s,10p,8d,5f,4g,3h,2i]
    22.0   6
* s-type functions
   30   11
  122647000.00000000
   21956200.00000000
    4902330.00000000
    1310600.00000000
     405228.00000000
     140757.00000000
      53625.10000000
      21976.20000000
       9539.60000000
       4334.37000000
       2042.89000000
        992.30800000
        494.44600000
        251.90700000
        130.90500000
         69.23680000
         37.18470000
         20.21570000
         11.07650000
          6.07867000
          3.31277000
          1.77250000
          0.91737800
          0.46928300
          0.21926700
          0.10581100
          0.04844300
          0.02253500
          4.25530000
          1.25380000
  6.6535550e-6 -3.7776450e-6  7.6744590e-7 -1.8193980e-7  3.3994650e-7 -5.1650970e-7 -6.1306540e-7 -8.5499620e-7  0.0000000000  0.0000000000  0.0000000000
  1.6139460e-5 -9.1641020e-6  1.8618630e-6 -4.4139800e-7  8.2472780e-7 -1.2528820e-6 -1.4869340e-6 -2.0791990e-6  0.0000000000  0.0000000000  0.0000000000
  4.6148980e-5 -2.6206840e-5  5.3249130e-6 -1.2623830e-6  2.3587280e-6 -3.5843600e-6 -4.2548470e-6 -5.9191440e-6  0.0000000000  0.0000000000  0.0000000000
  0.0001098321 -6.2386050e-5  0.0000126790 -3.0058950e-6  5.6163010e-6 -8.5295310e-6 -0.0000101210 -1.4222740e-5  0.0000000000  0.0000000000  0.0000000000
  0.0002484956 -0.0001412011  2.8704950e-5 -6.8050290e-6  1.2715420e-5 -1.9334370e-5 -2.2961050e-5 -3.1622930e-5  0.0000000000  0.0000000000  0.0000000000
  0.0005342847 -0.0003037954  6.1798980e-5 -1.4651820e-5  2.7374920e-5 -4.1529770e-5 -4.9240780e-5 -7.0459520e-5  0.0000000000  0.0000000000  0.0000000000
  0.0011335620 -0.0006451652  0.0001313324 -3.1133480e-5  5.8179420e-5 -0.0000886271 -0.0001053951 -0.0001407958  0.0000000000  0.0000000000  0.0000000000
  0.0024093000 -0.0013736510  0.0002801050 -6.6417460e-5  0.0001240819 -0.0001877584 -0.0002221924 -0.0003314919  0.0000000000  0.0000000000  0.0000000000
  0.0052062480 -0.0029761460  0.0006080523 -0.0001441365  0.0002693998 -0.0004117762 -0.0004909744 -0.0006194799  0.0000000000  0.0000000000  0.0000000000
  0.0114158200 -0.0065592160  0.0013464880 -0.0003193410  0.0005965550 -0.0008995392 -0.0010616520 -0.0016748150  0.0000000000  0.0000000000  0.0000000000
  0.0250056300 -0.0144946100  0.0029960380 -0.0007102401  0.0013278990 -0.0020376400 -0.0024370730 -0.0028808310  0.0000000000  0.0000000000  0.0000000000
  0.0529983400 -0.0312679100  0.0065621480 -0.0015570010  0.0029090100 -0.0043725930 -0.0051484930 -0.0085765460  0.0000000000  0.0000000000  0.0000000000
  0.1043003000 -0.0635967700  0.0136920500 -0.0032474830  0.0060760740 -0.0093714180 -0.0112548500 -0.0123466500  0.0000000000  0.0000000000  0.0000000000
  0.1799215000 -0.1170675000  0.0264819600 -0.0062924180  0.0117660300 -0.0176179300 -0.0207011100 -0.0374624500  0.0000000000  0.0000000000  0.0000000000
  0.2478886000 -0.1828196000  0.0448890000 -0.0106706700  0.0200131700 -0.0312766900 -0.0380117600 -0.0343345400  0.0000000000  0.0000000000  0.0000000000
  0.2308955000 -0.2142700000  0.0597664300 -0.0142828100  0.0267797400 -0.0394600000 -0.0460026000 -0.1097497000  0.0000000000  0.0000000000  0.0000000000
  0.1171295000 -0.1312221000  0.0403155500 -0.0096320940  0.0182606500 -0.0316483700 -0.0415401200  0.0344751900  0.0000000000  0.0000000000  0.0000000000
  0.0513027700  0.0921894400 -0.0441235000  0.0105720000 -0.0200781100  0.0380888600  0.0487637000 -0.1133770000  0.0000000000  0.0000000000  0.0000000000
  0.0909076700  0.3859538000 -0.2114728000  0.0526772200 -0.1014260000  0.1502097000  0.1925955000  0.6927722000  0.0000000000  0.0000000000  0.0000000000
  0.1038986000  0.4515632000 -0.3640708000  0.0946989600 -0.1911626000  0.3568484000  0.5435896000  0.3005719000  0.0000000000  0.0000000000  0.0000000000
  0.0427721200  0.1862977000 -0.1847230000  0.0483871300 -0.0919584800  0.0957957700 -0.0540763300  0.4990677000  0.0000000000  0.0000000000  0.0000000000
  0.0046985140  0.0202312900  0.3081164000 -0.0953668200  0.2382647000 -0.5931501000 -1.3033880000 -5.4080910000  0.0000000000  0.0000000000  0.0000000000
  0.0002635682 -6.6335340e-5  0.6066013000 -0.2116255000  0.5877260000 -1.4029870000 -1.3684980000  7.0117810000  0.0000000000  0.0000000000  0.0000000000
 -6.4541810e-5 -0.0008927498  0.3468082000 -0.2381936000  0.3656232000  1.2948550000  4.8530280000 -1.6041680000  0.0000000000  0.0000000000  0.0000000000
  1.0828740e-5 -6.1977870e-5  0.0405890300 -0.0524658900 -0.9952926000  2.1050350000 -3.2762980000 -5.4763320000  0.0000000000  0.0000000000  0.0000000000
  8.4216120e-8  1.7907040e-5 -0.0003910430  0.3869866000 -1.0629930000 -2.3454890000 -1.5668410000  8.3958070000  0.0000000000  0.0000000000  0.0000000000
  1.5633080e-5  5.8468080e-5  0.0025019680  0.6037621000  0.7767954000 -0.6659030000  4.2040350000 -6.4227320000  0.0000000000  0.0000000000  0.0000000000
  3.4267770e-6  1.6298430e-5  0.0004015988  0.2041068000  0.6260405000  1.3661800000 -2.3486510000  2.4069490000  1.0000000000  0.0000000000  0.0000000000
  0.0000000000  0.0000000000  0.0000000000  0.0000000000  0.0000000000  0.0000000000  0.0000000000  0.0000000000  0.0000000000  1.0000000000  0.0000000000
  0.0000000000  0.0000000000  0.0000000000  0.0000000000  0.0000000000  0.0000000000  0.0000000000  0.0000000000  0.0000000000  0.0000000000  1.0000000000
* p-type functions
   22   10
      59284.90000000
      14323.60000000
       4537.22000000
       1726.54000000
        741.07500000
        343.80700000
        167.88400000
         85.03940000
         44.38290000
         23.79280000
         13.05360000
          7.26872000
          4.03805000
          2.19294000
          1.16162000
          0.60325000
          0.30017400
          0.13013100
          0.05722300
          0.02491000
          5.78130000
          1.65000000
  0.0000160000 -0.0000050000  0.0000010000  0.0000020000  0.0000030000  0.0000040000 -0.0000060000  0.0000000000  0.0000000000  0.0000000000
  0.0000550000 -0.0000180000  0.0000040000  0.0000060000  0.0000110000  0.0000150000 -0.0000180000  0.0000000000  0.0000000000  0.0000000000
  0.0002280000 -0.0000760000  0.0000180000  0.0000230000  0.0000460000  0.0000510000 -0.0000810000  0.0000000000  0.0000000000  0.0000000000
  0.0008230000 -0.0002760000  0.0000660000  0.0000830000  0.0001590000  0.0002320000 -0.0002690000  0.0000000000  0.0000000000  0.0000000000
  0.0028250000 -0.0009510000  0.0002290000  0.0002880000  0.0005830000  0.0006090000 -0.0010210000  0.0000000000  0.0000000000  0.0000000000
  0.0088340000 -0.0029880000  0.0007140000  0.0008990000  0.0017100000  0.0025490000 -0.0028930000  0.0000000000  0.0000000000  0.0000000000
  0.0251330000 -0.0085890000  0.0020690000  0.0026000000  0.0052750000  0.0054260000 -0.0093000000  0.0000000000  0.0000000000  0.0000000000
  0.0634540000 -0.0220780000  0.0052890000  0.0066510000  0.0126190000  0.0189510000 -0.0215640000  0.0000000000  0.0000000000  0.0000000000
  0.1354900000 -0.0485130000  0.0117380000  0.0147430000  0.0300870000  0.0294070000 -0.0538970000  0.0000000000  0.0000000000  0.0000000000
  0.2297170000 -0.0848740000  0.0203950000  0.0256560000  0.0478170000  0.0786330000 -0.0809110000  0.0000000000  0.0000000000  0.0000000000
  0.3000430000 -0.1165050000  0.0286140000  0.0359060000  0.0780840000  0.0601470000 -0.1385590000  0.0000000000  0.0000000000  0.0000000000
  0.2708810000 -0.1060460000  0.0253940000  0.0320880000  0.0572690000  0.1842020000 -0.1746190000  0.0000000000  0.0000000000  0.0000000000
  0.1339910000  0.0208230000 -0.0070940000 -0.0081700000  0.0042350000 -0.1207450000  0.0897820000  0.0000000000  0.0000000000  0.0000000000
  0.0256630000  0.2474250000 -0.0720970000 -0.0887810000 -0.2405920000 -0.3032660000  1.4800170000  0.0000000000  0.0000000000  0.0000000000
 -0.0004750000  0.4015100000 -0.1181340000 -0.1438960000 -0.3988240000 -1.2402470000 -0.5900780000  0.0000000000  0.0000000000  0.0000000000
 -0.0015650000  0.3401570000 -0.1292760000 -0.1737260000 -0.3071790000  1.9464230000 -2.8885950000  0.0000000000  0.0000000000  0.0000000000
 -0.0006970000  0.1258060000  0.0315740000  0.0151180000  1.2623310000  0.3010090000  4.2554030000  0.0000000000  0.0000000000  0.0000000000
 -0.0000450000  0.0112720000  0.3785710000  0.6060130000  0.2556860000 -1.9812890000 -2.8758510000  0.0000000000  0.0000000000  0.0000000000
 -0.0000100000  0.0006720000  0.5269710000  0.4639250000 -0.8992420000  1.1972360000  0.8101380000  0.0000000000  0.0000000000  0.0000000000
  0.0000010000  0.0000580000  0.2014790000  0.0274580000 -0.0631970000  0.1257810000  0.3398300000  1.0000000000  0.0000000000  0.0000000000
  0.0000000000  0.0000000000  0.0000000000  0.0000000000  0.0000000000  0.0000000000  0.0000000000  0.0000000000  1.0000000000  0.0000000000
  0.0000000000  0.0000000000  0.0000000000  0.0000000000  0.0000000000  0.0000000000  0.0000000000  0.0000000000  0.0000000000  1.0000000000
* d-type functions
   14    8
        261.24600000
         77.44540000
         29.68790000
         12.76420000
          5.82992000
          2.79783000
          1.36383000
          0.66003700
          0.31369900
          0.14497800
          0.06477200
          0.02737600
          3.45340000
          1.94450000
  0.0002210000 -0.0002250000 -0.0003590000  0.0004330000  0.0005540000  0.0000000000  0.0000000000  0.0000000000
  0.0019730000 -0.0020120000 -0.0031940000  0.0036220000  0.0061940000  0.0000000000  0.0000000000  0.0000000000
  0.0101400000 -0.0103650000 -0.0167290000  0.0201220000  0.0274000000  0.0000000000  0.0000000000  0.0000000000
  0.0343140000 -0.0353510000 -0.0574460000  0.0664280000  0.1196640000  0.0000000000  0.0000000000  0.0000000000
  0.0898200000 -0.0943990000 -0.1579450000  0.2041410000  0.2918240000  0.0000000000  0.0000000000  0.0000000000
  0.1779610000 -0.1831950000 -0.2878870000  0.3220550000  0.5157480000  0.0000000000  0.0000000000  0.0000000000
  0.2593050000 -0.2438690000 -0.2743220000  0.1271500000 -0.9398630000  0.0000000000  0.0000000000  0.0000000000
  0.2967420000 -0.1915460000  0.1968330000 -0.9939100000 -0.5732200000  0.0000000000  0.0000000000  0.0000000000
  0.2697420000  0.1086070000  0.6962870000  0.0726930000  1.9949630000  0.0000000000  0.0000000000  0.0000000000
  0.1799180000  0.4574300000  0.0262030000  1.1603820000 -1.6489450000  0.0000000000  0.0000000000  0.0000000000
  0.0669950000  0.3913590000 -0.6014690000 -0.6995170000  0.2848740000  0.0000000000  0.0000000000  0.0000000000
  0.0058990000  0.0740960000 -0.1679160000 -0.3203440000  0.4394200000  1.0000000000  0.0000000000  0.0000000000
  0.0000000000  0.0000000000  0.0000000000  0.0000000000  0.0000000000  0.0000000000  1.0000000000  0.0000000000
  0.0000000000  0.0000000000  0.0000000000  0.0000000000  0.0000000000  0.0000000000  0.0000000000  1.0000000000
* f-type functions
    5    5
          5.07090000
          2.18370000
          0.94040000
          0.40490000
          0.12770000
  1.0000000000  0.0000000000  0.0000000000  0.0000000000  0.0000000000
  0.0000000000  1.0000000000  0.0000000000  0.0000000000  0.0000000000
  0.0000000000  0.0000000000  1.0000000000  0.0000000000  0.0000000000
  0.0000000000  0.0000000000  0.0000000000  1.0000000000  0.0000000000
  0.0000000000  0.0000000000  0.0000000000  0.0000000000  1.0000000000
* g-type functions
    4    4
          4.01000000
          1.81920000
          0.82540000
          0.25440000
  1.0000000000  0.0000000000  0.0000000000  0.0000000000
  0.0000000000  1.0000000000  0.0000000000  0.0000000000
  0.0000000000  0.0000000000  1.0000000000  0.0000000000
  0.0000000000  0.0000000000  0.0000000000  1.0000000000
* h-type functions
    3    3
          3.61680000
          1.54320000
          0.50440000
  1.0000000000  0.0000000000  0.0000000000
  0.0000000000  1.0000000000  0.0000000000
  0.0000000000  0.0000000000  1.0000000000
* i-type functions
    2    2
          3.15470000
          0.98640000
  1.0000000000  0.0000000000
  0.0000000000  1.0000000000

/V.cc-pwCV5Z-DK.Balabanov.30s22p14d5f4g3h2i.11s10p8d5f4g3h2i.
N.B. Balabanov, K.A. Peterson. J. Chem. Phys. 123 (2005) 064107. doi:10.1063/1.1998907
VANADIUM (30s,22p,14d,5f,4g,3h,2i) -> [11s,10p,8d,5f,4g,3h,2i]
    23.0   6
* s-type functions
   30   11
  128349000.00000000
   22904400.00000000
    5107770.00000000
    1365280.00000000
     422228.00000000
     146685.00000000
      55872.30000000
      22881.30000000
       9920.45000000
       4499.92000000
       2116.75000000
       1026.06000000
        510.25700000
        259.53200000
        134.70900000
         71.21040000
         38.24960000
         20.81020000
         11.41580000
          6.27302000
          3.42177000
          1.83044000
          0.94523500
          0.47592800
          0.18638100
          0.10676800
          0.04997900
          0.02350100
          4.67420000
          1.48920000
  7.3567050e-6 -4.0774970e-6  8.6039150e-7 -2.0020800e-7 -3.9016140e-7 -5.9437490e-7 -7.2898080e-7 -9.5341050e-7  0.0000000000  0.0000000000  0.0000000000
  1.7868240e-5 -9.9044080e-6  2.0900870e-6 -4.8635290e-7 -9.4758260e-7 -1.4433540e-6 -1.7719720e-6 -2.3207340e-6  0.0000000000  0.0000000000  0.0000000000
  5.0988890e-5 -2.8267010e-5  5.9656280e-6 -1.3881650e-6 -2.7057900e-6 -4.1225730e-6 -5.0516600e-6 -6.5984830e-6  0.0000000000  0.0000000000  0.0000000000
  0.0001210720 -6.7136970e-5  1.4172450e-5 -3.2978990e-6 -6.4228460e-6 -9.7808220e-6 -1.2029320e-5 -1.5795310e-5  0.0000000000  0.0000000000  0.0000000000
  0.0002732114 -0.0001515645  3.2003850e-5 -7.4470670e-6 -1.4527880e-5 -2.2146710e-5 -2.7040180e-5 -3.5136560e-5  0.0000000000  0.0000000000  0.0000000000
  0.0005857547 -0.0003251800  6.8712080e-5 -0.0000159897 -3.1093930e-5 -4.7306180e-5 -5.8567860e-5 -7.7632630e-5  0.0000000000  0.0000000000  0.0000000000
  0.0012391050 -0.0006886285  0.0001456091 -3.3882040e-5 -6.6264210e-5 -0.0001011766 -0.0001222068 -0.0001562748  0.0000000000  0.0000000000  0.0000000000
  0.0026255990 -0.0014618900  0.0003096893 -0.0000720715 -0.0001396479 -0.0002119860 -0.0002665839 -0.0003611841  0.0000000000  0.0000000000  0.0000000000
  0.0056568700 -0.0031589300  0.0006704643 -0.0001560162 -0.0003065372 -0.0004694133 -0.0005559679 -0.0006895381  0.0000000000  0.0000000000  0.0000000000
  0.0123714300 -0.0069462620  0.0014818380 -0.0003449014 -0.0006649490 -0.0010063240 -0.0012932820 -0.0018045340  0.0000000000  0.0000000000  0.0000000000
  0.0270311500 -0.0153250500  0.0032919390 -0.0007661694 -0.0015132700 -0.0023252200 -0.0026950090 -0.0032268830  0.0000000000  0.0000000000  0.0000000000
  0.0570952200 -0.0329910300  0.0072010540 -0.0016766900 -0.0032167560 -0.0048551720 -0.0063815280 -0.0091688090  0.0000000000  0.0000000000  0.0000000000
  0.1115932000 -0.0668449600  0.0149754300 -0.0034879040 -0.0069339330 -0.0107039400 -0.0121098200 -0.0139196800  0.0000000000  0.0000000000  0.0000000000
  0.1898393000 -0.1220202000  0.0287821000 -0.0067112670 -0.0127813200 -0.0192308600 -0.0262568900 -0.0395157600  0.0000000000  0.0000000000  0.0000000000
  0.2543687000 -0.1873822000  0.0480431400 -0.0112217000 -0.0226848100 -0.0354581300 -0.0378776700 -0.0388644600  0.0000000000  0.0000000000  0.0000000000
  0.2252741000 -0.2113255000  0.0615932900 -0.0144437900 -0.0266184200 -0.0394256400 -0.0628378900 -0.1101614000  0.0000000000  0.0000000000  0.0000000000
  0.1067044000 -0.1130379000  0.0353619100 -0.0083309400 -0.0200728200 -0.0344550600 -0.0140976700  0.0363321200  0.0000000000  0.0000000000  0.0000000000
  0.0511901000  0.1277586000 -0.0607382800  0.0144271000  0.0359228100  0.0626060100  0.0152771700 -0.0835322800  0.0000000000  0.0000000000  0.0000000000
  0.0923086500  0.4186041000 -0.2436103000  0.0598267200  0.1069343000  0.1646280000  0.3657945000  0.7752076000  0.0000000000  0.0000000000  0.0000000000
  0.0933096500  0.4309142000 -0.3702706000  0.0954039700  0.2278498000  0.4190186000  0.4139635000  0.3636147000  0.0000000000  0.0000000000  0.0000000000
  0.0331555900  0.1532117000 -0.1271151000  0.0311787900  0.0137976100 -0.0513544300  0.0034657610 -0.2488450000  0.0000000000  0.0000000000  0.0000000000
  0.0030872160  0.0139112000  0.3751019000 -0.1132242000 -0.2372538000 -0.6890882000 -2.1710400000 -4.9880880000  0.0000000000  0.0000000000  0.0000000000
  0.0001488484 -0.0005845882  0.6053597000 -0.2210081000 -0.7484825000 -1.4265880000  0.5191237000  8.8278190000  0.0000000000  0.0000000000  0.0000000000
 -5.7311040e-5 -0.0007972901  0.2921984000 -0.2196576000  0.0220218900  2.1578180000  3.3917220000 -5.6118930000  0.0000000000  0.0000000000  0.0000000000
  5.7221180e-6 -5.5382110e-5  0.0243350900  0.0003626926  1.2833500000  1.5272650000 -4.9828040000 -1.7489600000  0.0000000000  0.0000000000  0.0000000000
  7.0957410e-6  6.5726640e-5 -0.0041275380  0.4068028000  0.4625684000 -2.8478340000  1.6527780000  6.6204950000  0.0000000000  0.0000000000  0.0000000000
  1.8411640e-5  0.0000719369  0.0030183880  0.5697882000 -0.7206233000 -0.0497793700  2.6936830000 -6.0660540000  0.0000000000  0.0000000000  0.0000000000
  5.2377440e-6  2.6277150e-5  0.0002055795  0.1867083000 -0.5640308000  1.1371690000 -1.9797320000  2.4684660000  1.0000000000  0.0000000000  0.0000000000
  0.0000000000  0.0000000000  0.0000000000  0.0000000000  0.0000000000  0.0000000000  0.0000000000  0.0000000000  0.0000000000  1.0000000000  0.0000000000
  0.0000000000  0.0000000000  0.0000000000  0.0000000000  0.0000000000  0.0000000000  0.0000000000  0.0000000000  0.0000000000  0.0000000000  1.0000000000
* p-type functions
   22   10
      67602.10000000
      16330.10000000
       5149.59000000
       1950.03000000
        834.46300000
        386.99000000
        189.37200000
         96.28450000
         50.46400000
         27.14830000
         14.92560000
          8.31617000
          4.62086000
          2.51138000
          1.33091000
          0.69041500
          0.34320700
          0.14590300
          0.06292300
          0.02688300
          6.74720000
          1.95390000
  0.0000170000 -0.0000060000  0.0000010000  0.0000020000  0.0000040000 -0.0000040000 -0.0000060000  0.0000000000  0.0000000000  0.0000000000
  0.0000560000 -0.0000190000  0.0000050000  0.0000060000  0.0000110000 -0.0000160000 -0.0000190000  0.0000000000  0.0000000000  0.0000000000
  0.0002280000 -0.0000780000  0.0000190000  0.0000240000  0.0000490000 -0.0000560000 -0.0000870000  0.0000000000  0.0000000000  0.0000000000
  0.0008130000 -0.0002780000  0.0000670000  0.0000840000  0.0001630000 -0.0002410000 -0.0002700000  0.0000000000  0.0000000000  0.0000000000
  0.0027730000 -0.0009500000  0.0002300000  0.0002890000  0.0006020000 -0.0006620000 -0.0010940000  0.0000000000  0.0000000000  0.0000000000
  0.0086180000 -0.0029650000  0.0007130000  0.0008970000  0.0017350000 -0.0026190000 -0.0028450000  0.0000000000  0.0000000000  0.0000000000
  0.0243890000 -0.0084780000  0.0020570000  0.0025820000  0.0053940000 -0.0058290000 -0.0098880000  0.0000000000  0.0000000000  0.0000000000
  0.0613800000 -0.0217270000  0.0052380000  0.0065830000  0.0126850000 -0.0193560000 -0.0208950000  0.0000000000  0.0000000000  0.0000000000
  0.1315120000 -0.0479100000  0.0116840000  0.0146450000  0.0308350000 -0.0319690000 -0.0577290000  0.0000000000  0.0000000000  0.0000000000
  0.2254540000 -0.0848350000  0.0205230000  0.0257980000  0.0487250000 -0.0805560000 -0.0780440000  0.0000000000  0.0000000000  0.0000000000
  0.2991520000 -0.1182250000  0.0292840000  0.0366620000  0.0823030000 -0.0704160000 -0.1627120000  0.0000000000  0.0000000000  0.0000000000
  0.2750970000 -0.1095570000  0.0263730000  0.0334130000  0.0594740000 -0.1831570000 -0.1599950000  0.0000000000  0.0000000000  0.0000000000
  0.1389430000  0.0179470000 -0.0065840000 -0.0073480000  0.0086460000  0.1115480000  0.0926730000  0.0000000000  0.0000000000  0.0000000000
  0.0274120000  0.2471120000 -0.0738030000 -0.0897590000 -0.2621160000  0.3981650000  1.5778810000  0.0000000000  0.0000000000  0.0000000000
 -0.0003570000  0.4021140000 -0.1194390000 -0.1469230000 -0.3935920000  1.0931130000 -0.8678530000  0.0000000000  0.0000000000  0.0000000000
 -0.0016060000  0.3402800000 -0.1240420000 -0.1705400000 -0.2871610000 -1.8838240000 -2.5562590000  0.0000000000  0.0000000000  0.0000000000
 -0.0007230000  0.1277560000  0.0379050000  0.0258650000  1.2506070000 -0.2273100000  4.0136040000  0.0000000000  0.0000000000  0.0000000000
 -0.0000470000  0.0116850000  0.3730470000  0.6050070000  0.2254460000  1.8732010000 -2.7955480000  0.0000000000  0.0000000000  0.0000000000
 -0.0000080000  0.0003950000  0.5239770000  0.4600060000 -0.8781090000 -1.1618350000  0.8804900000  0.0000000000  0.0000000000  0.0000000000
  0.0000010000  0.0001100000  0.2089550000  0.0255740000 -0.0537030000 -0.1176420000  0.2726350000  1.0000000000  0.0000000000  0.0000000000
  0.0000000000  0.0000000000  0.0000000000  0.0000000000  0.0000000000  0.0000000000  0.0000000000  0.0000000000  1.0000000000  0.0000000000
  0.0000000000  0.0000000000  0.0000000000  0.0000000000  0.0000000000  0.0000000000  0.0000000000  0.0000000000  0.0000000000  1.0000000000
* d-type functions
   14    8
        315.80800000
         93.63340000
         36.03930000
         15.62580000
          7.20059000
          3.48059000
          1.70986000
          0.83296200
          0.39764100
          0.18414500
          0.08211900
          0.03444200
          4.29410000
          2.50360000
  0.0002050000 -0.0002170000 -0.0003380000 -0.0004460000  0.0005350000  0.0000000000  0.0000000000  0.0000000000
  0.0018340000 -0.0019460000 -0.0030140000 -0.0038100000  0.0056360000  0.0000000000  0.0000000000  0.0000000000
  0.0095670000 -0.0101870000 -0.0159950000 -0.0212090000  0.0266230000  0.0000000000  0.0000000000  0.0000000000
  0.0329840000 -0.0353910000 -0.0560850000 -0.0727570000  0.1140920000  0.0000000000  0.0000000000  0.0000000000
  0.0872900000 -0.0959860000 -0.1575950000 -0.2287970000  0.3131230000  0.0000000000  0.0000000000  0.0000000000
  0.1761900000 -0.1908580000 -0.2972960000 -0.3698700000  0.4547320000  0.0000000000  0.0000000000  0.0000000000
  0.2606360000 -0.2515260000 -0.2699670000 -0.0120350000 -0.9829330000  0.0000000000  0.0000000000  0.0000000000
  0.2990220000 -0.1781850000  0.2244730000  0.9990860000 -0.3904280000  0.0000000000  0.0000000000  0.0000000000
  0.2693220000  0.1286570000  0.6824160000 -0.2211580000  1.8432160000  0.0000000000  0.0000000000  0.0000000000
  0.1762820000  0.4500970000  0.0013190000 -1.0290000000 -1.5757380000  0.0000000000  0.0000000000  0.0000000000
  0.0656500000  0.3818610000 -0.5971310000  0.6624090000  0.2036060000  0.0000000000  0.0000000000  0.0000000000
  0.0063090000  0.0757850000 -0.1685340000  0.3036090000  0.5281180000  1.0000000000  0.0000000000  0.0000000000
  0.0000000000  0.0000000000  0.0000000000  0.0000000000  0.0000000000  0.0000000000  1.0000000000  0.0000000000
  0.0000000000  0.0000000000  0.0000000000  0.0000000000  0.0000000000  0.0000000000  0.0000000000  1.0000000000
* f-type functions
    5    5
          6.65140000
          2.88850000
          1.25440000
          0.54470000
          0.17690000
  1.0000000000  0.0000000000  0.0000000000  0.0000000000  0.0000000000
  0.0000000000  1.0000000000  0.0000000000  0.0000000000  0.0000000000
  0.0000000000  0.0000000000  1.0000000000  0.0000000000  0.0000000000
  0.0000000000  0.0000000000  0.0000000000  1.0000000000  0.0000000000
  0.0000000000  0.0000000000  0.0000000000  0.0000000000  1.0000000000
* g-type functions
    4    4
          4.80580000
          2.25620000
          1.05920000
          0.35210000
  1.0000000000  0.0000000000  0.0000000000  0.0000000000
  0.0000000000  1.0000000000  0.0000000000  0.0000000000
  0.0000000000  0.0000000000  1.0000000000  0.0000000000
  0.0000000000  0.0000000000  0.0000000000  1.0000000000
* h-type functions
    3    3
          4.38980000
          1.94490000
          0.69080000
  1.0000000000  0.0000000000  0.0000000000
  0.0000000000  1.0000000000  0.0000000000
  0.0000000000  0.0000000000  1.0000000000
* i-type functions
    2    2
          4.16900000
          1.53680000
  1.0000000000  0.0000000000
  0.0000000000  1.0000000000

/Cr.cc-pwCV5Z-DK.Balabanov.30s22p14d5f4g3h2i.11s10p8d5f4g3h2i.
N.B. Balabanov, K.A. Peterson. J. Chem. Phys. 123 (2005) 064107. doi:10.1063/1.1998907
CHROMIUM (30s,22p,14d,5f,4g,3h,2i) -> [11s,10p,8d,5f,4g,3h,2i]
    24.0   6
* s-type functions
   30   11
  135540000.00000000
   24240400.00000000
    5412270.00000000
    1447920.00000000
     448199.00000000
     155899.00000000
      59479.60000000
      24408.10000000
      10607.00000000
       4823.08000000
       2274.08000000
       1104.54000000
        550.09900000
        280.01000000
        145.33000000
         76.75510000
         41.15940000
         22.34450000
         12.22930000
          6.70777000
          3.65694000
          1.95978000
          1.01758000
          0.51291300
          0.19479800
          0.11096900
          0.05212300
          0.02448900
          5.27760000
          1.75420000
  7.9883560e-6 -4.4235030e-6  9.5079380e-7 -2.1692980e-7 -4.3249020e-7 -6.6556370e-7  8.3514310e-7 -1.0378220e-6  0.0000000000  0.0000000000  0.0000000000
  1.9312660e-5 -1.0695220e-5  2.2990300e-6 -5.2454060e-7 -1.0455100e-6 -1.6087540e-6  2.0210120e-6 -2.5134400e-6  0.0000000000  0.0000000000  0.0000000000
  5.5019810e-5 -3.0473940e-5  6.5512900e-6 -1.4947190e-6 -2.9806710e-6 -4.5875040e-6  5.7504060e-6 -7.1411040e-6  0.0000000000  0.0000000000  0.0000000000
  0.0001302212 -0.0000721459  1.5513910e-5 -3.5396550e-6 -7.0521430e-6 -0.0000108491  1.3657560e-5 -1.7008940e-5  0.0000000000  0.0000000000  0.0000000000
  0.0002927924 -0.0001622872  3.4907960e-5 -7.9644660e-6 -0.0000158966 -2.4477250e-5  3.0554380e-5 -3.7838140e-5  0.0000000000  0.0000000000  0.0000000000
  0.0006244700 -0.0003463873  7.4561950e-5 -1.7012620e-5 -3.3839130e-5 -0.0000520181  6.5990750e-5 -8.2611330e-5  0.0000000000  0.0000000000  0.0000000000
  0.0013123150 -0.0007287714  0.0001569865 -3.5817580e-5 -7.1687190e-5 -0.0001105326  0.0001362312 -0.0001672367  0.0000000000  0.0000000000  0.0000000000
  0.0027578950 -0.0015345310  0.0003311904 -7.5571750e-5 -0.0001497170 -0.0002297131  0.0002968797 -0.0003762776  0.0000000000  0.0000000000  0.0000000000
  0.0058868640 -0.0032857420  0.0007105562 -0.0001621265 -0.0003261726 -0.0005041990  0.0006067803 -0.0007322734  0.0000000000  0.0000000000  0.0000000000
  0.0127533400 -0.0071583850  0.0015561120 -0.0003551212 -0.0006995308 -0.0010704840  0.0014204960 -0.0018316290  0.0000000000  0.0000000000  0.0000000000
  0.0276403700 -0.0156706800  0.0034305650 -0.0007829176 -0.0015845400 -0.0024568400  0.0028783060 -0.0034062270  0.0000000000  0.0000000000  0.0000000000
  0.0580299000 -0.0335447600  0.0074631440 -0.0017038190 -0.0033374750 -0.0050960750  0.0069487350 -0.0091204970  0.0000000000  0.0000000000  0.0000000000
  0.1129400000 -0.0677352000  0.0154701400 -0.0035333910 -0.0072028780 -0.0112147100  0.0127571600 -0.0147831900  0.0000000000  0.0000000000  0.0000000000
  0.1914790000 -0.1233915000  0.0296811900 -0.0067863570 -0.0131845500 -0.0200890200  0.0286329600 -0.0386648200  0.0000000000  0.0000000000  0.0000000000
  0.2553998000 -0.1891323000  0.0494657300 -0.0113332100 -0.0235266300 -0.0370466200  0.0393161400 -0.0431179900  0.0000000000  0.0000000000  0.0000000000
  0.2241805000 -0.2118809000  0.0629809300 -0.0144846500 -0.0271164200 -0.0408400300  0.0696047200 -0.1032378000  0.0000000000  0.0000000000  0.0000000000
  0.1046212000 -0.1088253000  0.0344606500 -0.0079736520 -0.0202532000 -0.0346591200  0.0077925210  0.0207508200  0.0000000000  0.0000000000  0.0000000000
  0.0522612700  0.1418616000 -0.0685443300  0.0160128000  0.0408622400  0.0701755100 -0.0120502600 -0.0391451600  0.0000000000  0.0000000000  0.0000000000
  0.0943261000  0.4340020000 -0.2618341000  0.0632673100  0.1151279000  0.1839111000 -0.4427734000  0.7650270000  0.0000000000  0.0000000000  0.0000000000
  0.0898942600  0.4205940000 -0.3734862000  0.0947222900  0.2357592000  0.4352639000 -0.3877571000  0.4583898000  0.0000000000  0.0000000000  0.0000000000
  0.0295831900  0.1383169000 -0.0937465200  0.0214666400 -0.0149549700 -0.1145446000  0.1015322000 -0.8162241000  0.0000000000  0.0000000000  0.0000000000
  0.0026028200  0.0117894300  0.4031850000 -0.1199792000 -0.2568686000 -0.7658490000  2.4134830000 -4.2566620000  0.0000000000  0.0000000000  0.0000000000
  0.0001529062 -0.0005634646  0.5928442000 -0.2179553000 -0.7608963000 -1.3228080000 -1.3135760000  8.7954540000  0.0000000000  0.0000000000  0.0000000000
 -3.1488450e-5 -0.0006341974  0.2710006000 -0.2049556000  0.1231665000  2.3125880000 -2.6704710000 -6.3674240000  0.0000000000  0.0000000000  0.0000000000
  3.2981290e-6 -6.2422470e-5  0.0209404300  0.0253603500  1.3336790000  1.1444920000  5.1440310000 -0.0771824600  0.0000000000  0.0000000000  0.0000000000
  1.4482780e-5  0.0001024304 -0.0037695770  0.4083642000  0.3116838000 -2.7281420000 -2.5322670000  4.9948380000  0.0000000000  0.0000000000  0.0000000000
  2.1958620e-5  8.8127740e-5  0.0031028530  0.5538116000 -0.7120654000  0.1723585000 -2.0012780000 -5.5369870000  0.0000000000  0.0000000000  0.0000000000
  7.0834390e-6  3.5401320e-5  0.0002289563  0.1769909000 -0.5254501000  1.0169560000  1.7728750000  2.4115330000  1.0000000000  0.0000000000  0.0000000000
  0.0000000000  0.0000000000  0.0000000000  0.0000000000  0.0000000000  0.0000000000  0.0000000000  0.0000000000  0.0000000000  1.0000000000  0.0000000000
  0.0000000000  0.0000000000  0.0000000000  0.0000000000  0.0000000000  0.0000000000  0.0000000000  0.0000000000  0.0000000000  0.0000000000  1.0000000000
* p-type functions
   22   10
      72029.60000000
      17890.90000000
       5678.28000000
       2138.75000000
        905.85500000
        415.64500000
        201.69500000
        102.04000000
         53.39550000
         28.75700000
         15.85360000
          8.86385000
          4.94334000
          2.69732000
          1.43643000
          0.74851800
          0.37331000
          0.15774600
          0.06744500
          0.02854900
          7.70630000
          2.26900000
  0.0000180000 -0.0000060000  0.0000020000  0.0000020000  0.0000040000  0.0000050000 -0.0000070000  0.0000000000  0.0000000000  0.0000000000
  0.0000580000 -0.0000200000  0.0000050000  0.0000060000  0.0000120000  0.0000170000 -0.0000210000  0.0000000000  0.0000000000  0.0000000000
  0.0002350000 -0.0000810000  0.0000190000  0.0000250000  0.0000530000  0.0000630000 -0.0000960000  0.0000000000  0.0000000000  0.0000000000
  0.0008390000 -0.0002910000  0.0000680000  0.0000880000  0.0001780000  0.0002590000 -0.0002840000  0.0000000000  0.0000000000  0.0000000000
  0.0028990000 -0.0010080000  0.0002390000  0.0003080000  0.0006580000  0.0007560000 -0.0012270000  0.0000000000  0.0000000000  0.0000000000
  0.0091160000 -0.0031870000  0.0007500000  0.0009680000  0.0019430000  0.0028670000 -0.0030680000  0.0000000000  0.0000000000  0.0000000000
  0.0259650000 -0.0091780000  0.0021780000  0.0028070000  0.0060100000  0.0068170000 -0.0113470000  0.0000000000  0.0000000000  0.0000000000
  0.0652290000 -0.0235020000  0.0055440000  0.0071480000  0.0142900000  0.0213860000 -0.0225260000  0.0000000000  0.0000000000  0.0000000000
  0.1381920000 -0.0513060000  0.0122430000  0.0157580000  0.0340490000  0.0371400000 -0.0663840000  0.0000000000  0.0000000000  0.0000000000
  0.2329390000 -0.0894510000  0.0211740000  0.0273110000  0.0535590000  0.0867790000 -0.0792560000  0.0000000000  0.0000000000  0.0000000000
  0.3018830000 -0.1220480000  0.0296210000  0.0381310000  0.0880820000  0.0821420000 -0.1962790000  0.0000000000  0.0000000000  0.0000000000
  0.2665600000 -0.1053490000  0.0246650000  0.0321240000  0.0596580000  0.1832060000 -0.1328260000  0.0000000000  0.0000000000  0.0000000000
  0.1274760000  0.0349420000 -0.0108710000 -0.0130760000 -0.0075160000 -0.1563700000  0.2007610000  0.0000000000  0.0000000000  0.0000000000
  0.0235560000  0.2633420000 -0.0772030000 -0.0972130000 -0.3010680000 -0.5064860000  1.6694880000  0.0000000000  0.0000000000  0.0000000000
 -0.0004170000  0.4014720000 -0.1173230000 -0.1500190000 -0.4037260000 -0.8977050000 -1.5147710000  0.0000000000  0.0000000000  0.0000000000
 -0.0014190000  0.3252750000 -0.1154640000 -0.1633260000 -0.1805400000  1.9776090000 -1.7673040000  0.0000000000  0.0000000000  0.0000000000
 -0.0006110000  0.1179790000  0.0466460000  0.0542490000  1.2490040000 -0.0784390000  3.6122160000  0.0000000000  0.0000000000  0.0000000000
 -0.0000370000  0.0104140000  0.3726460000  0.6112600000  0.1136350000 -1.6907600000 -2.7767190000  0.0000000000  0.0000000000  0.0000000000
 -0.0000060000  0.0003090000  0.5199920000  0.4390970000 -0.8277730000  1.1510650000  1.0038450000  0.0000000000  0.0000000000  0.0000000000
  0.0000010000  0.0001030000  0.2095400000  0.0225150000 -0.0417750000  0.0923770000  0.2007930000  1.0000000000  0.0000000000  0.0000000000
  0.0000000000  0.0000000000  0.0000000000  0.0000000000  0.0000000000  0.0000000000  0.0000000000  0.0000000000  1.0000000000  0.0000000000
  0.0000000000  0.0000000000  0.0000000000  0.0000000000  0.0000000000  0.0000000000  0.0000000000  0.0000000000  0.0000000000  1.0000000000
* d-type functions
   14    8
        408.62300000
        120.76100000
         46.44600000
         20.23900000
          9.36381000
          4.53094000
          2.23140000
          1.08776000
          0.51738400
          0.23716400
          0.10330800
          0.04144800
          5.19670000
          3.11940000
  0.0001600000 -0.0001810000 -0.0002610000 -0.0003830000  0.0004370000  0.0000000000  0.0000000000  0.0000000000
  0.0014480000 -0.0016430000 -0.0023550000 -0.0032790000  0.0045890000  0.0000000000  0.0000000000  0.0000000000
  0.0078230000 -0.0089270000 -0.0129600000 -0.0190900000  0.0227170000  0.0000000000  0.0000000000  0.0000000000
  0.0281850000 -0.0323460000 -0.0472650000 -0.0677960000  0.0996160000  0.0000000000  0.0000000000  0.0000000000
  0.0772900000 -0.0912500000 -0.1386330000 -0.2245640000  0.3058450000  0.0000000000  0.0000000000  0.0000000000
  0.1641140000 -0.1928490000 -0.2864130000 -0.4060110000  0.4774610000  0.0000000000  0.0000000000  0.0000000000
  0.2548640000 -0.2645410000 -0.2875130000 -0.0277500000 -0.9325180000  0.0000000000  0.0000000000  0.0000000000
  0.3022260000 -0.1867400000  0.1816790000  0.9973750000 -0.4753000000  0.0000000000  0.0000000000  0.0000000000
  0.2792280000  0.1269280000  0.6898620000 -0.1697640000  1.8742470000  0.0000000000  0.0000000000  0.0000000000
  0.1870480000  0.4503720000  0.0343680000 -1.0397890000 -1.5688730000  0.0000000000  0.0000000000  0.0000000000
  0.0708990000  0.3818950000 -0.6335340000  0.6710790000  0.2238730000  0.0000000000  0.0000000000  0.0000000000
  0.0066360000  0.0701200000 -0.1665880000  0.2639590000  0.5161520000  1.0000000000  0.0000000000  0.0000000000
  0.0000000000  0.0000000000  0.0000000000  0.0000000000  0.0000000000  0.0000000000  1.0000000000  0.0000000000
  0.0000000000  0.0000000000  0.0000000000  0.0000000000  0.0000000000  0.0000000000  0.0000000000  1.0000000000
* f-type functions
    5    5
          8.12760000
          3.52600000
          1.52970000
          0.66360000
          0.21580000
  1.0000000000  0.0000000000  0.0000000000  0.0000000000  0.0000000000
  0.0000000000  1.0000000000  0.0000000000  0.0000000000  0.0000000000
  0.0000000000  0.0000000000  1.0000000000  0.0000000000  0.0000000000
  0.0000000000  0.0000000000  0.0000000000  1.0000000000  0.0000000000
  0.0000000000  0.0000000000  0.0000000000  0.0000000000  1.0000000000
* g-type functions
    4    4
          5.54220000
          2.63110000
          1.24910000
          0.42650000
  1.0000000000  0.0000000000  0.0000000000  0.0000000000
  0.0000000000  1.0000000000  0.0000000000  0.0000000000
  0.0000000000  0.0000000000  1.0000000000  0.0000000000
  0.0000000000  0.0000000000  0.0000000000  1.0000000000
* h-type functions
    3    3
          5.17780000
          2.34190000
          0.86610000
  1.0000000000  0.0000000000  0.0000000000
  0.0000000000  1.0000000000  0.0000000000
  0.0000000000  0.0000000000  1.0000000000
* i-type functions
    2    2
          5.17190000
          2.08050000
  1.0000000000  0.0000000000
  0.0000000000  1.0000000000

/Mn.cc-pwCV5Z-DK.Balabanov.30s22p14d5f4g3h2i.11s10p8d5f4g3h2i.
N.B. Balabanov, K.A. Peterson. J. Chem. Phys. 123 (2005) 064107. doi:10.1063/1.1998907
MANGANESE (30s,22p,14d,5f,4g,3h,2i) -> [11s,10p,8d,5f,4g,3h,2i]
    25.0   6
* s-type functions
   30   11
  137766000.00000000
   24564000.00000000
    5479990.00000000
    1466640.00000000
     454421.00000000
     158216.00000000
      60404.30000000
      24793.60000000
      10772.30000000
       4895.54000000
       2306.56000000
       1119.56000000
        557.38100000
        283.77800000
        147.43600000
         78.02270000
         41.96790000
         22.87780000
         12.58450000
          6.94170000
          3.80629000
          2.05031000
          1.06838000
          0.53660600
          0.18326000
          0.10529700
          0.05146400
          0.02467800
          5.83400000
          1.98790000
  9.1758810e-6 -4.3813380e-6  1.0682870e-6 -2.3809400e-7 -4.8478700e-7 -7.5120110e-7  9.5018590e-7 -1.1281180e-6  0.0000000000  0.0000000000  0.0000000000
  2.2208370e-5 -1.0605250e-5  2.5860310e-6 -5.7636170e-7 -1.1730960e-6 -1.8176180e-6  2.3026380e-6 -2.7335350e-6  0.0000000000  0.0000000000  0.0000000000
  6.3129020e-5 -3.0151440e-5  7.3529330e-6 -1.6387830e-6 -3.3378660e-6 -5.1726160e-6  6.5340310e-6 -7.7585020e-6  0.0000000000  0.0000000000  0.0000000000
  0.0001490430 -7.1208410e-5  1.7369410e-5 -3.8712480e-6 -7.8742090e-6 -0.0000121987  1.5495270e-5 -1.8391840e-5  0.0000000000  0.0000000000  0.0000000000
  0.0003342520 -0.0001597824  3.8985420e-5 -8.6889050e-6 -0.0000177214 -2.7471410e-5  3.4514190e-5 -4.0999510e-5  0.0000000000  0.0000000000  0.0000000000
  0.0007110598 -0.0003402030  8.3061110e-5 -1.8512830e-5 -3.7563120e-5 -5.8161370e-5  7.4622360e-5 -8.8516770e-5  0.0000000000  0.0000000000  0.0000000000
  0.0014907060 -0.0007142262  0.0001744949 -3.8891810e-5 -7.9647740e-5 -0.0001235878  0.0001527131 -0.0001816369  0.0000000000  0.0000000000  0.0000000000
  0.0031254330 -0.0015008070  0.0003673057 -0.0000818682 -0.0001651190 -0.0002553343  0.0003356054 -0.0003975353  0.0000000000  0.0000000000  0.0000000000
  0.0066555500 -0.0032080260  0.0007865417 -0.0001753253 -0.0003618268 -0.0005624479  0.0006735275 -0.0008030675  0.0000000000  0.0000000000  0.0000000000
  0.0143810600 -0.0069769420  0.0017187150 -0.0003831060 -0.0007660144 -0.0011824680  0.0016086630 -0.0019024480  0.0000000000  0.0000000000  0.0000000000
  0.0310618100 -0.0152511600  0.0037808900 -0.0008430459 -0.0017553900 -0.0027346880  0.0031585950 -0.0037791670  0.0000000000  0.0000000000  0.0000000000
  0.0648597100 -0.0325723000  0.0081939830 -0.0018270490 -0.0036208660 -0.0055823570  0.0078734570 -0.0093077040  0.0000000000  0.0000000000  0.0000000000
  0.1250063000 -0.0655571600  0.0168843900 -0.0037683810 -0.0079328220 -0.0123993700  0.0137317300 -0.0165406000  0.0000000000  0.0000000000  0.0000000000
  0.2083100000 -0.1186999000  0.0320300700 -0.0071523000 -0.0139732600 -0.0215283000  0.0322759300 -0.0382170400  0.0000000000  0.0000000000  0.0000000000
  0.2695263000 -0.1799524000  0.0522777600 -0.0117091300 -0.0253659400 -0.0400311700  0.0397610900 -0.0488739500  0.0000000000  0.0000000000  0.0000000000
  0.2254809000 -0.1951121000  0.0632949600 -0.0142105100 -0.0258396400 -0.0395184600  0.0770642900 -0.0912829300  0.0000000000  0.0000000000  0.0000000000
  0.0981984200 -0.0821727300  0.0273014200 -0.0062063580 -0.0198907100 -0.0335730200 -0.0121418300  0.0084914370  0.0000000000  0.0000000000  0.0000000000
  0.0436358200  0.1808616000 -0.0871774100  0.0200051300  0.0558766200  0.0931687700 -0.0057228790  0.0261130100  0.0000000000  0.0000000000  0.0000000000
  0.0696258000  0.4586460000 -0.2875772000  0.0679937300  0.1164236000  0.1936863000 -0.5354706000  0.7079390000  0.0000000000  0.0000000000  0.0000000000
  0.0591998400  0.3972272000 -0.3628884000  0.0900802700  0.2517457000  0.4576255000 -0.2928017000  0.6498609000  0.0000000000  0.0000000000  0.0000000000
  0.0174596500  0.1168848000 -0.0421502700  0.0067268410 -0.0800285200 -0.2269693000  0.0923295300 -1.5963690000  0.0000000000  0.0000000000  0.0000000000
  0.0012730750  0.0079584950  0.4388709000 -0.1266192000 -0.2433200000 -0.8205798000  2.8929030000 -3.2731990000  0.0000000000  0.0000000000  0.0000000000
 -8.1997020e-5 -0.0020922040  0.5771293000 -0.2141210000 -0.8158726000 -1.1703670000 -2.5729720000  8.6437670000  0.0000000000  0.0000000000  0.0000000000
 -8.8463190e-5 -0.0011351420  0.2387704000 -0.1856184000  0.3234709000  2.4796750000 -1.3308900000 -7.1910560000  0.0000000000  0.0000000000  0.0000000000
 -6.8381120e-7 -7.8793720e-5  0.0157021700  0.0909400000  1.5214530000  0.5071965000  5.1351630000  2.6285060000  0.0000000000  0.0000000000  0.0000000000
  0.0000092988  0.0001025231 -0.0042038080  0.4118037000 -0.1148130000 -2.4559780000 -3.8523080000  1.9458760000  0.0000000000  0.0000000000  0.0000000000
  1.0779150e-5  5.4101580e-5  0.0030450680  0.5094118000 -0.6387061000  0.4637332000 -0.9550986000 -4.4344500000  0.0000000000  0.0000000000  0.0000000000
  3.4831440e-6  2.6289410e-5  5.8885810e-5  0.1537275000 -0.4790046000  0.8882104000  1.4998970000  2.2371310000  1.0000000000  0.0000000000  0.0000000000
  0.0000000000  0.0000000000  0.0000000000  0.0000000000  0.0000000000  0.0000000000  0.0000000000  0.0000000000  0.0000000000  1.0000000000  0.0000000000
  0.0000000000  0.0000000000  0.0000000000  0.0000000000  0.0000000000  0.0000000000  0.0000000000  0.0000000000  0.0000000000  0.0000000000  1.0000000000
* p-type functions
   22   10
      79296.80000000
      19317.10000000
       6114.10000000
       2316.26000000
        989.69000000
        457.94200000
        223.64200000
        113.59400000
         59.56210000
         32.10720000
         17.71030000
          9.90621000
          5.52243000
          3.00832000
          1.59873000
          0.83086800
          0.41353800
          0.17121400
          0.07212200
          0.03011000
          8.83180000
          2.69170000
  0.0000200000 -0.0000070000 -0.0000020000  0.0000020000  0.0000050000  0.0000060000  0.0000080000  0.0000000000  0.0000000000  0.0000000000
  0.0000630000 -0.0000220000 -0.0000050000  0.0000070000  0.0000140000  0.0000200000  0.0000250000  0.0000000000  0.0000000000  0.0000000000
  0.0002480000 -0.0000860000 -0.0000200000  0.0000270000  0.0000580000  0.0000710000  0.0001060000  0.0000000000  0.0000000000  0.0000000000
  0.0008630000 -0.0003000000 -0.0000690000  0.0000940000  0.0001920000  0.0002850000  0.0003420000  0.0000000000  0.0000000000  0.0000000000
  0.0029100000 -0.0010160000 -0.0002350000  0.0003190000  0.0006960000  0.0008150000  0.0012720000  0.0000000000  0.0000000000  0.0000000000
  0.0090030000 -0.0031590000 -0.0007240000  0.0009840000  0.0020080000  0.0030400000  0.0035810000  0.0000000000  0.0000000000  0.0000000000
  0.0254540000 -0.0090310000 -0.0020910000  0.0028430000  0.0062130000  0.0071830000  0.0114470000  0.0000000000  0.0000000000  0.0000000000
  0.0639330000 -0.0231260000 -0.0053130000  0.0072090000  0.0146760000  0.0225240000  0.0264520000  0.0000000000  0.0000000000  0.0000000000
  0.1361980000 -0.0507790000 -0.0118180000  0.0160560000  0.0353990000  0.0396270000  0.0662750000  0.0000000000  0.0000000000  0.0000000000
  0.2315300000 -0.0893990000 -0.0205920000  0.0279420000  0.0558380000  0.0922750000  0.1011730000  0.0000000000  0.0000000000  0.0000000000
  0.3023300000 -0.1228770000 -0.0290740000  0.0396110000  0.0928570000  0.0881760000  0.1824440000  0.0000000000  0.0000000000  0.0000000000
  0.2689820000 -0.1065140000 -0.0242130000  0.0329680000  0.0627380000  0.1941840000  0.2264760000  0.0000000000  0.0000000000  0.0000000000
  0.1295470000  0.0357560000  0.0103870000 -0.0131210000 -0.0076120000 -0.1735320000 -0.4191550000  0.0000000000  0.0000000000  0.0000000000
  0.0233200000  0.2669420000  0.0758020000 -0.1026490000 -0.3326500000 -0.6083310000 -1.7434020000  0.0000000000  0.0000000000  0.0000000000
 -0.0015660000  0.4036250000  0.1132510000 -0.1544890000 -0.4106540000 -0.7382110000  2.2743340000  0.0000000000  0.0000000000  0.0000000000
 -0.0023560000  0.3225890000  0.1107600000 -0.1600600000 -0.1060750000  2.0243030000  0.6841410000  0.0000000000  0.0000000000  0.0000000000
 -0.0009350000  0.1156130000 -0.0458160000  0.0784490000  1.2223080000 -0.3298290000 -2.8576890000  0.0000000000  0.0000000000  0.0000000000
 -0.0000620000  0.0099950000 -0.3666060000  0.6163740000  0.0490250000 -1.4935320000  2.5150700000  0.0000000000  0.0000000000  0.0000000000
 -0.0000060000  0.0001640000 -0.5209940000  0.4207930000 -0.7934070000  1.1177440000 -1.0349870000  0.0000000000  0.0000000000  0.0000000000
  0.0000000000  0.0001270000 -0.2168910000  0.0197030000 -0.0298990000  0.0644670000 -0.1342690000  1.0000000000  0.0000000000  0.0000000000
  0.0000000000  0.0000000000  0.0000000000  0.0000000000  0.0000000000  0.0000000000  0.0000000000  0.0000000000  1.0000000000  0.0000000000
  0.0000000000  0.0000000000  0.0000000000  0.0000000000  0.0000000000  0.0000000000  0.0000000000  0.0000000000  0.0000000000  1.0000000000
* d-type functions
   14    8
        449.78500000
        132.75100000
         50.95280000
         22.15940000
         10.26120000
          4.97803000
          2.45730000
          1.20101000
          0.57251600
          0.26259600
          0.11414000
          0.04564200
          5.97180000
          3.54280000
  0.0001690000 -0.0001730000 -0.0002730000 -0.0003450000  0.0004430000  0.0000000000  0.0000000000  0.0000000000
  0.0015380000 -0.0015710000 -0.0024890000 -0.0031230000  0.0041250000  0.0000000000  0.0000000000  0.0000000000
  0.0083670000 -0.0085770000 -0.0137240000 -0.0174550000  0.0227360000  0.0000000000  0.0000000000  0.0000000000
  0.0303140000 -0.0312520000 -0.0506030000 -0.0644950000  0.0894400000  0.0000000000  0.0000000000  0.0000000000
  0.0828020000 -0.0873880000 -0.1473270000 -0.2022090000  0.3004590000  0.0000000000  0.0000000000  0.0000000000
  0.1723770000 -0.1828420000 -0.2974210000 -0.4044630000  0.4539710000  0.0000000000  0.0000000000  0.0000000000
  0.2608660000 -0.2505620000 -0.2738540000 -0.0249760000 -0.8298630000  0.0000000000  0.0000000000  0.0000000000
  0.3011350000 -0.1725500000  0.1901550000  0.9272090000 -0.5280360000  0.0000000000  0.0000000000  0.0000000000
  0.2713710000  0.1183370000  0.6286420000 -0.0725570000  1.6092210000  0.0000000000  0.0000000000  0.0000000000
  0.1780740000  0.4199520000  0.1058660000 -0.9877520000 -0.9535770000  0.0000000000  0.0000000000  0.0000000000
  0.0677740000  0.4092760000 -0.5751650000  0.4393010000 -0.3842430000  0.0000000000  0.0000000000  0.0000000000
  0.0070780000  0.1088550000 -0.2380900000  0.4318000000  0.7689550000  1.0000000000  0.0000000000  0.0000000000
  0.0000000000  0.0000000000  0.0000000000  0.0000000000  0.0000000000  0.0000000000  1.0000000000  0.0000000000
  0.0000000000  0.0000000000  0.0000000000  0.0000000000  0.0000000000  0.0000000000  0.0000000000  1.0000000000
* f-type functions
    5    5
          9.47470000
          4.14040000
          1.80930000
          0.79060000
          0.26140000
  1.0000000000  0.0000000000  0.0000000000  0.0000000000  0.0000000000
  0.0000000000  1.0000000000  0.0000000000  0.0000000000  0.0000000000
  0.0000000000  0.0000000000  1.0000000000  0.0000000000  0.0000000000
  0.0000000000  0.0000000000  0.0000000000  1.0000000000  0.0000000000
  0.0000000000  0.0000000000  0.0000000000  0.0000000000  1.0000000000
* g-type functions
    4    4
          6.49080000
          3.12250000
          1.50220000
          0.53270000
  1.0000000000  0.0000000000  0.0000000000  0.0000000000
  0.0000000000  1.0000000000  0.0000000000  0.0000000000
  0.0000000000  0.0000000000  1.0000000000  0.0000000000
  0.0000000000  0.0000000000  0.0000000000  1.0000000000
* h-type functions
    3    3
          6.00710000
          2.76920000
          1.06360000
  1.0000000000  0.0000000000  0.0000000000
  0.0000000000  1.0000000000  0.0000000000
  0.0000000000  0.0000000000  1.0000000000
* i-type functions
    2    2
          6.08460000
          2.57360000
  1.0000000000  0.0000000000
  0.0000000000  1.0000000000

/Fe.cc-pwCV5Z-DK.Balabanov.30s22p14d5f4g3h1i.11s10p8d5f4g3h1i.
N.B. Balabanov, K.A. Peterson. J. Chem. Phys. 123 (2005) 064107. doi:10.1063/1.1998907
IRON (30s,22p,14d,5f,4g,3h,1i) -> [11s,10p,8d,5f,4g,3h,1i]
    26.0   6
* s-type functions
   30   11
  149769000.00000000
   26722500.00000000
    5959000.00000000
    1593610.00000000
     493464.00000000
     171790.00000000
      65620.90000000
      26965.60000000
      11735.30000000
       5343.43000000
       2522.50000000
       1226.43000000
        611.26900000
        311.30800000
        161.62400000
         85.37670000
         45.79110000
         24.86770000
         13.62020000
          7.48106000
          4.08817000
          2.19905000
          1.14815000
          0.57726500
          0.19763500
          0.10898600
          0.05321600
          0.02557100
          6.62240000
          2.21400000
  9.5311190e-6 -4.9137630e-6  1.1459210e-6 -2.4991840e-7 -5.0570640e-7 -8.0934680e-7  1.0095550e-6 -1.1713950e-6  0.0000000000  0.0000000000  0.0000000000
  0.0000230051 -1.1861490e-5  2.7664020e-6 -6.0333670e-7 -1.2204040e-6 -1.9529500e-6  2.4389730e-6 -2.8280500e-6  0.0000000000  0.0000000000  0.0000000000
  6.5337330e-5 -0.0000336939  7.8591100e-6 -1.7140260e-6 -3.4693760e-6 -5.5530660e-6  6.9198030e-6 -8.0337040e-6  0.0000000000  0.0000000000  0.0000000000
  0.0001539246 -7.9403250e-5  1.8525620e-5 -4.0403790e-6 -8.1678340e-6 -1.3068150e-5  1.6353060e-5 -1.8941350e-5  0.0000000000  0.0000000000  0.0000000000
  0.0003441447 -0.0001776260  4.1455440e-5 -9.0412390e-6 -1.8323210e-5 -2.9340130e-5  3.6413480e-5 -4.2373230e-5  0.0000000000  0.0000000000  0.0000000000
  0.0007285032 -0.0003763323  8.7894460e-5 -1.9169950e-5 -3.8664890e-5 -6.1818470e-5  7.7947040e-5 -8.9910280e-5  0.0000000000  0.0000000000  0.0000000000
  0.0015170010 -0.0007847577  0.0001834278 -4.0005940e-5 -8.1389910e-5 -0.0001304882  0.0001599140 -0.0001874489  0.0000000000  0.0000000000  0.0000000000
  0.0031528760 -0.0016345990  0.0003827944 -8.3491080e-5 -0.0001674412 -0.0002672449  0.0003433745 -0.0003920043  0.0000000000  0.0000000000  0.0000000000
  0.0066469980 -0.0034589290  0.0008117003 -0.0001770532 -0.0003628889 -0.0005831799  0.0006974589 -0.0008294306  0.0000000000  0.0000000000  0.0000000000
  0.0142179100 -0.0074452760  0.0017561600 -0.0003830627 -0.0007617575 -0.0012127840  0.0016022780 -0.0018020240  0.0000000000  0.0000000000  0.0000000000
  0.0304540700 -0.0161325500  0.0038320220 -0.0008361335 -0.0017288580 -0.0027864040  0.0032390620 -0.0039218630  0.0000000000  0.0000000000  0.0000000000
  0.0632653600 -0.0342432800  0.0082632180 -0.0018030280 -0.0035546120 -0.0056472320  0.0076832570 -0.0085173070  0.0000000000  0.0000000000  0.0000000000
  0.1217368000 -0.0686776700  0.0170016200 -0.0037133370 -0.0077587130 -0.0125543100  0.0141423600 -0.0175269000  0.0000000000  0.0000000000  0.0000000000
  0.2031899000 -0.1241129000  0.0323092500 -0.0070605400 -0.0137376300 -0.0217803200  0.0310949700 -0.0338039700  0.0000000000  0.0000000000  0.0000000000
  0.2639911000 -0.1879234000  0.0530073900 -0.0116196400 -0.0249316000 -0.0407790100  0.0425794600 -0.0560609500  0.0000000000  0.0000000000  0.0000000000
  0.2217772000 -0.2035676000  0.0647043300 -0.0142199600 -0.0259359400 -0.0405470800  0.0713351600 -0.0710512600  0.0000000000  0.0000000000  0.0000000000
  0.0973796300 -0.0867626400  0.0282807700 -0.0062932420 -0.0194181300 -0.0346579400  0.0021833970 -0.0332430600  0.0000000000  0.0000000000  0.0000000000
  0.0498401900  0.1846239000 -0.0913790700  0.0205502900  0.0555412200  0.0968534100 -0.0361141900  0.1098520000  0.0000000000  0.0000000000  0.0000000000
  0.0842451300  0.4648402000 -0.2999505000  0.0695937600  0.1214082000  0.2002373000 -0.4667594000  0.4989928000  0.0000000000  0.0000000000  0.0000000000
  0.0696524800  0.3903679000 -0.3644776000  0.0886939000  0.2442000000  0.4769334000 -0.4745196000  1.1808670000  0.0000000000  0.0000000000  0.0000000000
  0.0195340500  0.1090655000 -0.0191594900  0.0004909512 -0.0904598300 -0.2581863000  0.3405478000 -2.6823140000  0.0000000000  0.0000000000  0.0000000000
  0.0014111590  0.0073826100  0.4570656000 -0.1299238000 -0.2628125000 -0.9230158000  2.9650550000 -1.9954220000  0.0000000000  0.0000000000  0.0000000000
 -3.3511050e-5 -0.0015379760  0.5657498000 -0.2097213000 -0.7631501000 -0.9809175000 -3.1242630000  8.0242930000  0.0000000000  0.0000000000  0.0000000000
 -6.4613510e-5 -0.0007905751  0.2232925000 -0.1737261000  0.3326928000  2.3972200000 -0.7678803000 -7.3886900000  0.0000000000  0.0000000000  0.0000000000
 -5.4260270e-7 -6.5770980e-5  0.0135619900  0.1060750000  1.4046210000  0.3264145000  4.5495040000  3.6568100000  0.0000000000  0.0000000000  0.0000000000
  9.1965380e-6  8.5499430e-5 -0.0028944950  0.4180125000 -0.0469216500 -2.1933160000 -3.5555160000  0.5149325000  0.0000000000  0.0000000000  0.0000000000
  8.5398200e-6  3.0971340e-5  0.0028894790  0.4927516000 -0.5871979000  0.3872588000 -0.7601738000 -3.5546670000  0.0000000000  0.0000000000  0.0000000000
  3.1064960e-6  2.0235870e-5  0.0001159783  0.1478611000 -0.5175077000  0.8823095000  1.3873330000  1.9974510000  1.0000000000  0.0000000000  0.0000000000
  0.0000000000  0.0000000000  0.0000000000  0.0000000000  0.0000000000  0.0000000000  0.0000000000  0.0000000000  0.0000000000  1.0000000000  0.0000000000
  0.0000000000  0.0000000000  0.0000000000  0.0000000000  0.0000000000  0.0000000000  0.0000000000  0.0000000000  0.0000000000  0.0000000000  1.0000000000
* p-type functions
   22   10
      86947.30000000
      21254.00000000
       6741.14000000
       2557.16000000
       1093.51000000
        506.16100000
        247.13900000
        125.41500000
         65.65120000
         35.30790000
         19.42600000
         10.84380000
          6.04359000
          3.30245000
          1.76389000
          0.92138600
          0.46037300
          0.18377200
          0.07583300
          0.03109900
         10.01280000
          3.18690000
  0.0000210000 -0.0000070000  0.0000010000  0.0000020000  0.0000050000  0.0000070000  0.0000090000  0.0000000000  0.0000000000  0.0000000000
  0.0000650000 -0.0000230000  0.0000050000  0.0000080000  0.0000160000  0.0000220000  0.0000290000  0.0000000000  0.0000000000  0.0000000000
  0.0002530000 -0.0000890000  0.0000180000  0.0000300000  0.0000640000  0.0000750000  0.0001090000  0.0000000000  0.0000000000  0.0000000000
  0.0008630000 -0.0003050000  0.0000620000  0.0001010000  0.0002050000  0.0002990000  0.0003970000  0.0000000000  0.0000000000  0.0000000000
  0.0028800000 -0.0010210000  0.0002060000  0.0003450000  0.0007420000  0.0008360000  0.0012300000  0.0000000000  0.0000000000  0.0000000000
  0.0088710000 -0.0031600000  0.0006410000  0.0010440000  0.0021120000  0.0031500000  0.0041710000  0.0000000000  0.0000000000  0.0000000000
  0.0251020000 -0.0090400000  0.0018230000  0.0030620000  0.0066080000  0.0073470000  0.0109530000  0.0000000000  0.0000000000  0.0000000000
  0.0633210000 -0.0232530000  0.0047240000  0.0076850000  0.0155250000  0.0234770000  0.0312980000  0.0000000000  0.0000000000  0.0000000000
  0.1358630000 -0.0514370000  0.0104000000  0.0175320000  0.0381290000  0.0410870000  0.0629250000  0.0000000000  0.0000000000  0.0000000000
  0.2327030000 -0.0913390000  0.0186700000  0.0301610000  0.0598830000  0.0975520000  0.1287670000  0.0000000000  0.0000000000  0.0000000000
  0.3046360000 -0.1258840000  0.0255820000  0.0442270000  0.1016430000  0.0908420000  0.1531790000  0.0000000000  0.0000000000  0.0000000000
  0.2687880000 -0.1069500000  0.0222310000  0.0339460000  0.0656380000  0.2145040000  0.3717700000  0.0000000000  0.0000000000  0.0000000000
  0.1273450000  0.0410190000 -0.0118400000 -0.0135250000 -0.0086190000 -0.2163130000 -0.8112890000  0.0000000000  0.0000000000  0.0000000000
  0.0228330000  0.2708820000 -0.0639610000 -0.1194880000 -0.3943080000 -0.6998590000 -1.5543880000  0.0000000000  0.0000000000  0.0000000000
 -0.0011410000  0.4012450000 -0.1027460000 -0.1621650000 -0.4130690000 -0.5724700000  2.8444910000  0.0000000000  0.0000000000  0.0000000000
 -0.0020290000  0.3176300000 -0.0875210000 -0.1665290000  0.0083830000  2.1283030000 -0.3331810000  0.0000000000  0.0000000000  0.0000000000
 -0.0008150000  0.1157220000  0.0197040000  0.1323570000  1.1954800000 -0.6883840000 -2.0704940000  0.0000000000  0.0000000000  0.0000000000
 -0.0000540000  0.0101650000  0.3183820000  0.6424150000 -0.0857100000 -1.2354660000  2.1970260000  0.0000000000  0.0000000000  0.0000000000
 -0.0000020000 -0.0001700000  0.5417010000  0.3670330000 -0.7319400000  1.0979600000 -1.0477470000  0.0000000000  0.0000000000  0.0000000000
 -0.0000010000  0.0002000000  0.2560760000  0.0116320000 -0.0091150000  0.0209900000 -0.0755760000  1.0000000000  0.0000000000  0.0000000000
  0.0000000000  0.0000000000  0.0000000000  0.0000000000  0.0000000000  0.0000000000  0.0000000000  0.0000000000  1.0000000000  0.0000000000
  0.0000000000  0.0000000000  0.0000000000  0.0000000000  0.0000000000  0.0000000000  0.0000000000  0.0000000000  0.0000000000  1.0000000000
* d-type functions
   14    8
        518.41600000
        152.81900000
         58.58690000
         25.45640000
         11.78680000
          5.71861000
          2.82417000
          1.37985000
          0.65616000
          0.29960900
          0.12936100
          0.05115500
          7.09820000
          4.27720000
  0.0001600000 -0.0001770000 -0.0002540000 -0.0003410000 -0.0004710000  0.0000000000  0.0000000000  0.0000000000
  0.0014550000 -0.0016100000 -0.0023390000 -0.0032470000 -0.0040070000  0.0000000000  0.0000000000  0.0000000000
  0.0080310000 -0.0089160000 -0.0129930000 -0.0176830000 -0.0241170000  0.0000000000  0.0000000000  0.0000000000
  0.0297140000 -0.0331710000 -0.0491090000 -0.0690100000 -0.0892860000  0.0000000000  0.0000000000  0.0000000000
  0.0822320000 -0.0940020000 -0.1441260000 -0.2130540000 -0.3436340000  0.0000000000  0.0000000000  0.0000000000
  0.1721170000 -0.1993290000 -0.3047430000 -0.4729490000 -0.5125270000  0.0000000000  0.0000000000  0.0000000000
  0.2605020000 -0.2718150000 -0.2717250000  0.0841780000  1.2463330000  0.0000000000  0.0000000000  0.0000000000
  0.2998410000 -0.1664290000  0.2521590000  1.0193100000 -0.0283050000  0.0000000000  0.0000000000  0.0000000000
  0.2711060000  0.1583620000  0.6338040000 -0.3538990000 -1.4832450000  0.0000000000  0.0000000000  0.0000000000
  0.1810280000  0.4350360000  0.0132280000 -0.8589280000  1.3909220000  0.0000000000  0.0000000000  0.0000000000
  0.0710430000  0.3719440000 -0.6003050000  0.5806560000 -0.1698910000  0.0000000000  0.0000000000  0.0000000000
  0.0078230000  0.0795490000 -0.1874510000  0.2904510000 -0.5211150000  1.0000000000  0.0000000000  0.0000000000
  0.0000000000  0.0000000000  0.0000000000  0.0000000000  0.0000000000  0.0000000000  1.0000000000  0.0000000000
  0.0000000000  0.0000000000  0.0000000000  0.0000000000  0.0000000000  0.0000000000  0.0000000000  1.0000000000
* f-type functions
    5    5
         11.04710000
          4.85410000
          2.13290000
          0.93720000
          0.31410000
  1.0000000000  0.0000000000  0.0000000000  0.0000000000  0.0000000000
  0.0000000000  1.0000000000  0.0000000000  0.0000000000  0.0000000000
  0.0000000000  0.0000000000  1.0000000000  0.0000000000  0.0000000000
  0.0000000000  0.0000000000  0.0000000000  1.0000000000  0.0000000000
  0.0000000000  0.0000000000  0.0000000000  0.0000000000  1.0000000000
* g-type functions
    4    4
          7.54750000
          3.67370000
          1.78810000
          0.65640000
  1.0000000000  0.0000000000  0.0000000000  0.0000000000
  0.0000000000  1.0000000000  0.0000000000  0.0000000000
  0.0000000000  0.0000000000  1.0000000000  0.0000000000
  0.0000000000  0.0000000000  0.0000000000  1.0000000000
* h-type functions
    3    3
          6.92630000
          3.25270000
          1.29640000
  1.0000000000  0.0000000000  0.0000000000
  0.0000000000  1.0000000000  0.0000000000
  0.0000000000  0.0000000000  1.0000000000
* i-type functions
    1    1
          7.05690000
  1.0000000000

/Co.cc-pwCV5Z-DK.Balabanov.30s22p14d5f4g3h2i.11s10p8d5f4g3h2i.
N.B. Balabanov, K.A. Peterson. J. Chem. Phys. 123 (2005) 064107. doi:10.1063/1.1998907
COBALT (30s,22p,14d,5f,4g,3h,2i) -> [11s,10p,8d,5f,4g,3h,2i]
    27.0   6
* s-type functions
   30   11
  161030000.00000000
   28755800.00000000
    6423240.00000000
    1721200.00000000
     533994.00000000
     186194.00000000
      71201.70000000
      29276.20000000
      12742.30000000
       5800.51000000
       2736.96000000
       1329.99000000
        662.61100000
        337.41500000
        175.23400000
         92.64340000
         49.75760000
         27.07280000
         14.86100000
          8.18121000
          4.47941000
          2.41191000
          1.25844000
          0.63123400
          0.21529700
          0.11851000
          0.05720900
          0.02716600
          7.33460000
          2.60360000
  1.0058310e-5 -5.2894150e-6  1.2296050e-6 -2.6237660e-7 -5.2191060e-7 -8.8366080e-7  1.0839620e-6  1.2448280e-6  0.0000000000  0.0000000000  0.0000000000
  2.4184190e-5 -1.2719230e-5  2.9570320e-6 -6.3098110e-7 -1.2547020e-6 -2.1240670e-6  2.6080690e-6  2.9921130e-6  0.0000000000  0.0000000000  0.0000000000
  6.8463430e-5 -3.6013470e-5  8.3735520e-6 -1.7867730e-6 -3.5551860e-6 -6.0201440e-6  7.3789210e-6  8.4809550e-6  0.0000000000  0.0000000000  0.0000000000
  0.0001605510 -8.4482010e-5  1.9648350e-5 -4.1926810e-6 -8.3326190e-6 -1.4102950e-5  1.7343850e-5  1.9866640e-5  0.0000000000  0.0000000000  0.0000000000
  0.0003573516 -0.0001881435  4.3772660e-5 -9.3403770e-6 -1.8605780e-5 -3.1521720e-5  3.8513680e-5  0.0000444134  0.0000000000  0.0000000000  0.0000000000
  0.0007524535 -0.0003965136  9.2320070e-5 -1.9700360e-5 -0.0000390719 -0.0000660715  8.1743210e-5  9.3065560e-5  0.0000000000  0.0000000000  0.0000000000
  0.0015577290 -0.0008220461  0.0001915590 -4.0876640e-5 -8.1712410e-5 -0.0001386482  0.0001677276  0.0001954644  0.0000000000  0.0000000000  0.0000000000
  0.0032159320 -0.0017009200  0.0003971299 -8.4748130e-5 -0.0001672056 -0.0002821319  0.0003543362  0.0003972354  0.0000000000  0.0000000000  0.0000000000
  0.0067317820 -0.0035739350  0.0008362892 -0.0001784740 -0.0003592347 -0.0006113458  0.0007253799  0.0008630873  0.0000000000  0.0000000000  0.0000000000
  0.0143010700 -0.0076406750  0.0017972420 -0.0003835678 -0.0007508135 -0.0012627950  0.0016224180  0.0017771120  0.0000000000  0.0000000000  0.0000000000
  0.0304669400 -0.0164671600  0.0039016410 -0.0008329223 -0.0016905060 -0.0028873870  0.0033488870  0.0040877330  0.0000000000  0.0000000000  0.0000000000
  0.0630743600 -0.0348300200  0.0083853030 -0.0017902320 -0.0034756770 -0.0058281350  0.0076737610  0.0082081350  0.0000000000  0.0000000000  0.0000000000
  0.1211301000 -0.0697037100  0.0172249500 -0.0036808330 -0.0075457480 -0.0129502300  0.0146482700  0.0184555700  0.0000000000  0.0000000000  0.0000000000
  0.2019129000 -0.1257417000  0.0326972200 -0.0069915830 -0.0134055200 -0.0223988500  0.0307235300  0.0317399000  0.0000000000  0.0000000000  0.0000000000
  0.2621166000 -0.1900435000  0.0536165700 -0.0114996000 -0.0241821800 -0.0420328400  0.0447970000  0.0610872700  0.0000000000  0.0000000000  0.0000000000
  0.2203891000 -0.2055906000  0.0654427800 -0.0140742900 -0.0253850000 -0.0415038800  0.0681334600  0.0597025500  0.0000000000  0.0000000000  0.0000000000
  0.0974149300 -0.0881030100  0.0287731700 -0.0062630820 -0.0186473800 -0.0362539400  0.0108063900  0.0581005800  0.0000000000  0.0000000000  0.0000000000
  0.0513940300  0.1847425000 -0.0928574900  0.0204435800  0.0535809000  0.1006906000 -0.0532318300 -0.1582299000  0.0000000000  0.0000000000  0.0000000000
  0.0872026700  0.4644587000 -0.3037701000  0.0689980500  0.1194320000  0.2013184000 -0.4188921000 -0.3738525000  0.0000000000  0.0000000000  0.0000000000
  0.0720162800  0.3893510000 -0.3649679000  0.0867941600  0.2332153000  0.4996169000 -0.6190722000 -1.5325190000  0.0000000000  0.0000000000  0.0000000000
  0.0203351900  0.1095439000 -0.0161485300 -0.0002481641 -0.0844937200 -0.2741211000  0.5395570000  3.3585990000  0.0000000000  0.0000000000  0.0000000000
  0.0014822860  0.0074938300  0.4594886000 -0.1278762000 -0.2635046000 -0.9585018000  2.8852480000  1.1755130000  0.0000000000  0.0000000000  0.0000000000
 -3.9350720e-5 -0.0014990690  0.5645161000 -0.2042779000 -0.7020055000 -0.9159533000 -3.2281870000 -7.4023150000  0.0000000000  0.0000000000  0.0000000000
 -7.0633430e-5 -0.0007921508  0.2219477000 -0.1679982000  0.2829039000  2.3009600000 -0.5981499000  7.1300430000  0.0000000000  0.0000000000  0.0000000000
 -3.8729630e-7 -6.0256590e-5  0.0134142200  0.0973125300  1.2814760000  0.4067037000  4.2621970000 -3.6484700000  0.0000000000  0.0000000000  0.0000000000
  5.6569430e-6  6.1370860e-5 -0.0028194250  0.4059191000  0.0826933200 -2.0722390000 -3.1973340000 -0.3800983000  0.0000000000  0.0000000000  0.0000000000
  5.7653350e-6  1.5961470e-5  0.0028506580  0.4984338000 -0.5151596000  0.2039038000 -0.9026527000  3.3503540000  0.0000000000  0.0000000000  0.0000000000
  2.1731480e-6  1.4190560e-5  0.0001530962  0.1593535000 -0.6068594000  0.9194582000  1.3726560000 -1.8918090000  1.0000000000  0.0000000000  0.0000000000
  0.0000000000  0.0000000000  0.0000000000  0.0000000000  0.0000000000  0.0000000000  0.0000000000  0.0000000000  0.0000000000  1.0000000000  0.0000000000
  0.0000000000  0.0000000000  0.0000000000  0.0000000000  0.0000000000  0.0000000000  0.0000000000  0.0000000000  0.0000000000  0.0000000000  1.0000000000
* p-type functions
   22   10
[...]
 -8.6941620e-5 -0.0007554723  0.2082356000 -0.1527500000 -0.2343794000  2.2174050000 -0.1558572000  6.4636960000  0.0000000000  0.0000000000  0.0000000000
 -4.9812960e-7 -4.2980190e-5  0.0116683000  0.1154243000 -1.1416750000  0.2946674000  3.8360120000 -4.0960100000  0.0000000000  0.0000000000  0.0000000000
 -2.8317610e-7  2.0080320e-5 -0.0026223430  0.3991441000 -0.1782541000 -1.7996860000 -3.0972150000  0.7479657000  0.0000000000  0.0000000000  0.0000000000
 -3.6848160e-7 -0.0000128462  0.0026905260  0.4799799000  0.4035479000  0.1028281000 -0.6882707000  2.4905270000  0.0000000000  0.0000000000  0.0000000000
 -1.7596470e-7  9.7776240e-7  0.0001018087  0.1616652000  0.7220290000  0.8792733000  1.2516000000 -1.6116810000  1.0000000000  0.0000000000  0.0000000000
  0.0000000000  0.0000000000  0.0000000000  0.0000000000  0.0000000000  0.0000000000  0.0000000000  0.0000000000  0.0000000000  1.0000000000  0.0000000000
  0.0000000000  0.0000000000  0.0000000000  0.0000000000  0.0000000000  0.0000000000  0.0000000000  0.0000000000  0.0000000000  0.0000000000  1.0000000000
* p-type functions
   22   10
     110294.00000000
      26939.10000000
       8550.71000000
       3246.19000000
       1388.46000000
        642.47400000
        313.57000000
        159.16100000
         83.44140000
         45.01960000
         24.88940000
         13.97310000
          7.82571000
          4.28632000
          2.29034000
          1.19342000
          0.59376500
          0.22443800
          0.08905400
          0.03515900
         14.02870000
          4.55430000
  0.0000260000 -0.0000090000  0.0000020000  0.0000040000  0.0000070000  0.0000090000  0.0000120000  0.0000000000  0.0000000000  0.0000000000
  0.0000750000 -0.0000270000  0.0000050000  0.0000100000  0.0000200000  0.0000260000  0.0000370000  0.0000000000  0.0000000000  0.0000000000
  0.0002810000 -0.0001020000  0.0000200000  0.0000400000  0.0000790000  0.0000900000  0.0001290000  0.0000000000  0.0000000000  0.0000000000
  0.0009180000 -0.0003340000  0.0000650000  0.0001260000  0.0002440000  0.0003330000  0.0004600000  0.0000000000  0.0000000000  0.0000000000
  0.0029920000 -0.0010910000  0.0002140000  0.0004320000  0.0008600000  0.0009350000  0.0013520000  0.0000000000  0.0000000000  0.0000000000
  0.0090870000 -0.0033330000  0.0006440000  0.0012550000  0.0024180000  0.0033830000  0.0046720000  0.0000000000  0.0000000000  0.0000000000
  0.0255820000 -0.0094840000  0.0018640000  0.0037740000  0.0075320000  0.0080790000  0.0117990000  0.0000000000  0.0000000000  0.0000000000
  0.0643480000 -0.0243520000  0.0047140000  0.0091680000  0.0176530000  0.0250980000  0.0349680000  0.0000000000  0.0000000000  0.0000000000
  0.1376450000 -0.0537450000  0.0106300000  0.0216050000  0.0433520000  0.0451110000  0.0673370000  0.0000000000  0.0000000000  0.0000000000
  0.2349520000 -0.0953630000  0.0184760000  0.0355600000  0.0676910000  0.1032270000  0.1440250000  0.0000000000  0.0000000000  0.0000000000
  0.3047840000 -0.1301120000  0.0262980000  0.0552330000  0.1152020000  0.1026140000  0.1712510000  0.0000000000  0.0000000000  0.0000000000
  0.2648080000 -0.1056390000  0.0196530000  0.0354750000  0.0737700000  0.2345540000  0.4656640000  0.0000000000  0.0000000000  0.0000000000
  0.1241960000  0.0508120000 -0.0111480000 -0.0139680000 -0.0230050000 -0.3024320000 -1.3932960000  0.0000000000  0.0000000000  0.0000000000
  0.0222350000  0.2812260000 -0.0686400000 -0.1677020000 -0.5121360000 -0.8409990000 -0.8568460000  0.0000000000  0.0000000000  0.0000000000
 -0.0009000000  0.4021990000 -0.0915680000 -0.1792800000 -0.3816750000 -0.1611940000  3.0067100000  0.0000000000  0.0000000000  0.0000000000
 -0.0017820000  0.3078070000 -0.0936840000 -0.1598730000  0.2588690000  2.0920550000 -1.3521260000  0.0000000000  0.0000000000  0.0000000000
 -0.0006950000  0.1096300000  0.0390660000  0.2578420000  1.0576180000 -1.1789640000 -1.1255820000  0.0000000000  0.0000000000  0.0000000000
 -0.0000370000  0.0091710000  0.3402200000  0.6467550000 -0.3088970000 -0.7973400000  1.8070530000  0.0000000000  0.0000000000  0.0000000000
 -0.0000010000 -0.0004380000  0.5267450000  0.2746030000 -0.6050570000  1.0105300000 -1.0605300000  0.0000000000  0.0000000000  0.0000000000
 -0.0000010000  0.0002410000  0.2503020000  0.0068500000  0.0076160000 -0.0234930000 -0.0084580000  1.0000000000  0.0000000000  0.0000000000
  0.0000000000  0.0000000000  0.0000000000  0.0000000000  0.0000000000  0.0000000000  0.0000000000  0.0000000000  1.0000000000  0.0000000000
  0.0000000000  0.0000000000  0.0000000000  0.0000000000  0.0000000000  0.0000000000  0.0000000000  0.0000000000  0.0000000000  1.0000000000
* d-type functions
   14    8
        772.56800000
        226.92500000
         87.14430000
         38.21320000
         17.96120000
          8.85615000
          4.46344200
          2.23737600
          1.09865400
          0.52259000
          0.23685300
          0.09887500
         10.89110000
          6.40900000
  0.0001330000 -0.0001650000  0.0001970000 -0.0002760000  0.0003980000  0.0000000000  0.0000000000  0.0000000000
  0.0012050000 -0.0014980000  0.0018220000 -0.0027780000  0.0033780000  0.0000000000  0.0000000000  0.0000000000
  0.0067640000 -0.0084440000  0.0102100000 -0.0146190000  0.0206020000  0.0000000000  0.0000000000  0.0000000000
  0.0258160000 -0.0324170000  0.0398450000 -0.0611040000  0.0767260000  0.0000000000  0.0000000000  0.0000000000
  0.0729480000 -0.0938520000  0.1178100000 -0.1818600000  0.3059720000  0.0000000000  0.0000000000  0.0000000000
  0.1564260000 -0.2065660000  0.2756010000 -0.4875970000  0.6264760000  0.0000000000  0.0000000000  0.0000000000
  0.2437200000 -0.2911760000  0.2897810000 -0.0267970000 -1.1729970000  0.0000000000  0.0000000000  0.0000000000
  0.2867800000 -0.1807960000 -0.1939950000  0.9955180000 -0.3053710000  0.0000000000  0.0000000000  0.0000000000
  0.2689430000  0.1358870000 -0.5830370000 -0.0675450000  1.6280130000  0.0000000000  0.0000000000  0.0000000000
  0.1994720000  0.3842560000 -0.1696990000 -0.9273900000 -0.9952610000  0.0000000000  0.0000000000  0.0000000000
  0.1028820000  0.3645460000  0.5171400000  0.2357130000 -0.4062770000  0.0000000000  0.0000000000  0.0000000000
  0.0239940000  0.1416150000  0.3780240000  0.5126770000  0.7224430000  1.0000000000  0.0000000000  0.0000000000
  0.0000000000  0.0000000000  0.0000000000  0.0000000000  0.0000000000  0.0000000000  1.0000000000  0.0000000000
  0.0000000000  0.0000000000  0.0000000000  0.0000000000  0.0000000000  0.0000000000  0.0000000000  1.0000000000
* f-type functions
    5    5
         16.38650000
          7.27100000
          3.22630000
          1.43160000
          0.49480000
  1.0000000000  0.0000000000  0.0000000000  0.0000000000  0.0000000000
  0.0000000000  1.0000000000  0.0000000000  0.0000000000  0.0000000000
  0.0000000000  0.0000000000  1.0000000000  0.0000000000  0.0000000000
  0.0000000000  0.0000000000  0.0000000000  1.0000000000  0.0000000000
  0.0000000000  0.0000000000  0.0000000000  0.0000000000  1.0000000000
* g-type functions
    4    4
         11.52710000
          5.70730000
          2.82580000
          1.08760000
  1.0000000000  0.0000000000  0.0000000000  0.0000000000
  0.0000000000  1.0000000000  0.0000000000  0.0000000000
  0.0000000000  0.0000000000  1.0000000000  0.0000000000
  0.0000000000  0.0000000000  0.0000000000  1.0000000000
* h-type functions
    3    3
         10.02590000
          4.85060000
          2.06780000
  1.0000000000  0.0000000000  0.0000000000
  0.0000000000  1.0000000000  0.0000000000
  0.0000000000  0.0000000000  1.0000000000
* i-type functions
    2    2
         10.02540000
          4.89980000
  1.0000000000  0.0000000000
  0.0000000000  1.0000000000

/Zn.cc-pwCV5Z-DK.Balabanov.30s22p14d5f4g3h2i.11s10p8d5f4g3h2i.
N.B. Balabanov, K.A. Peterson. J. Chem. Phys. 123 (2005) 064107. doi:10.1063/1.1998907
ZINC (30s,22p,14d,5f,4g,3h,2i) -> [11s,10p,8d,5f,4g,3h,2i]
    30.0   6
* s-type functions
   30   11
  187413000.00000000
   33512700.00000000
    7504750.00000000
    2017870.00000000
     628578.00000000
     220163.00000000
      84595.20000000
      34955.50000000
      15290.30000000
       6994.93000000
       3316.59000000
       1619.24000000
        810.34300000
        414.39300000
        216.05800000
        114.63500000
         61.76230000
         33.69240000
         18.53150000
         10.21440000
          5.59428000
          3.00968000
          1.56684000
          0.78143700
          0.25811800
          0.13855600
          0.06617100
          0.03098600
         10.46380000
          3.97050000
  0.0000132955 -4.1893550e-6  1.5875410e-6 -3.2166380e-7  8.9701670e-7 -1.2406830e-6  1.6263150e-6  1.6774040e-6  0.0000000000  0.0000000000  0.0000000000
  3.1679490e-5 -9.9838410e-6  3.7834510e-6 -7.6658770e-7  2.1369110e-6 -2.9563550e-6  3.8780980e-6  3.9847740e-6  0.0000000000  0.0000000000  0.0000000000
  8.9064290e-5 -2.8077050e-5  1.0640270e-5 -2.1559310e-6  6.0140760e-6 -8.3166770e-6  1.0895540e-5  1.1269990e-5  0.0000000000  0.0000000000  0.0000000000
  0.0002066572 -0.0000651837  2.4704670e-5 -5.0055800e-6  1.3945190e-5 -1.9300120e-5  2.5346410e-5  2.5900420e-5  0.0000000000  0.0000000000  0.0000000000
  0.0004548837 -0.0001436122  5.4433010e-5 -1.1029730e-5  3.0806420e-5 -4.2569850e-5  5.5645080e-5  5.8221970e-5  0.0000000000  0.0000000000  0.0000000000
  0.0009443108 -0.0002985641  0.0001131937 -2.2934610e-5  6.3748070e-5 -8.8356620e-5  0.0001165369  0.0001165111  0.0000000000  0.0000000000  0.0000000000
  0.0019228100 -0.0006093739  0.0002310621 -4.6827420e-5  0.0001313128 -0.0001810250  0.0002349487  0.0002549601  0.0000000000  0.0000000000  0.0000000000
  0.0038911040 -0.0012375970  0.0004696011 -9.5140570e-5  0.0002628654 -0.0003657439  0.0004877277  0.0004596676  0.0000000000  0.0000000000  0.0000000000
  0.0079645290 -0.0025484360  0.0009673158 -0.0001961162  0.0005544613 -0.0007606877  0.0009730738  0.0011354240  0.0000000000  0.0000000000  0.0000000000
  0.0165274500 -0.0053400100  0.0020305530 -0.0004113547  0.0011256450 -0.0015761670  0.0021388650  0.0018243780  0.0000000000  0.0000000000  0.0000000000
  0.0344673800 -0.0113327100  0.0043152880 -0.0008756030  0.0025016480 -0.0034120040  0.0042874270  0.0054627280  0.0000000000  0.0000000000  0.0000000000
  0.0702033900 -0.0238143500  0.0091125180 -0.0018466740  0.0050008850 -0.0070562800  0.0097648260  0.0073960350  0.0000000000  0.0000000000  0.0000000000
  0.1334825000 -0.0480083700  0.0184839900 -0.0037578050  0.0108752400 -0.0147443900  0.0181802500  0.0255683300  0.0000000000  0.0000000000  0.0000000000
  0.2218817000 -0.0888337000  0.0347329700 -0.0070529190  0.0188091200 -0.0269068700  0.0384558400  0.0238386000  0.0000000000  0.0000000000  0.0000000000
  0.2905487000 -0.1410912000  0.0564973400 -0.0115581300  0.0345265300 -0.0462406400  0.0545696300  0.0950299300  0.0000000000  0.0000000000  0.0000000000
  0.2514154000 -0.1625539000  0.0681880600 -0.0139274700  0.0344357900 -0.0523472500  0.0853169400  0.0069232430  0.0000000000  0.0000000000  0.0000000000
  0.1104322000 -0.0657020800  0.0284828600 -0.0060290290  0.0273885200 -0.0298690500  0.0083732400  0.1880996000  0.0000000000  0.0000000000  0.0000000000
  0.0165425900  0.2026356000 -0.1040963000  0.0222331400 -0.0842796900  0.0987518400 -0.0608918300 -0.4031428000  0.0000000000  0.0000000000  0.0000000000
  0.0011756040  0.4792005000 -0.3255060000  0.0707465000 -0.1705452000  0.2937935000 -0.5785153000 -0.2440123000  0.0000000000  0.0000000000  0.0000000000
  4.3944820e-6  0.3835192000 -0.3639222000  0.0841009200 -0.3495087000  0.5744894000 -1.1032020000 -2.6311870000  0.0000000000  0.0000000000  0.0000000000
  5.0862330e-5  0.1036154000  0.0148837000 -0.0095383660  0.2018431000 -0.4751036000  2.2840940000  8.5665470000  0.0000000000  0.0000000000  0.0000000000
 -8.7352670e-5  0.0091374400  0.4842177000 -0.1293246000  0.4776662000 -1.5175250000  2.2290710000 -8.5502990000  0.0000000000  0.0000000000  0.0000000000
  1.1859090e-5  0.0014257890  0.5547911000 -0.2048438000  0.8519198000  0.0994502400 -6.1223910000  1.5561710000  0.0000000000  0.0000000000  0.0000000000
 -1.2394930e-5  0.0003278608  0.1974334000 -0.1509100000 -0.8356815000  2.4779920000  3.5202910000  3.8758550000  0.0000000000  0.0000000000  0.0000000000
  4.8642550e-6  7.4595930e-6  0.0086592060  0.1434650000 -1.4250480000 -1.6658000000  1.7479200000 -7.7835480000  0.0000000000  0.0000000000  0.0000000000
 -3.9296130e-6  0.0000084389 -0.0025710160  0.4156941000  0.5713802000 -0.7478743000 -3.8325180000  7.9747250000  0.0000000000  0.0000000000  0.0000000000
  1.7071230e-6 -4.5619340e-6  0.0007635916  0.4761157000  0.5322771000  0.9641101000  1.7443180000 -2.8277670000  0.0000000000  0.0000000000  0.0000000000
 -4.3424460e-7  1.2809940e-6 -0.0001623352  0.1286362000  0.2240772000  0.2666171000  0.1343828000  0.0124480800  1.0000000000  0.0000000000  0.0000000000
  0.0000000000  0.0000000000  0.0000000000  0.0000000000  0.0000000000  0.0000000000  0.0000000000  0.0000000000  0.0000000000  1.0000000000  0.0000000000
  0.0000000000  0.0000000000  0.0000000000  0.0000000000  0.0000000000  0.0000000000  0.0000000000  0.0000000000  0.0000000000  0.0000000000  1.0000000000
* p-type functions
   22   10
     110349.00000000
      26971.30000000
       8560.07000000
       3248.80000000
       1389.41000000
        643.04300000
        314.00500000
        159.48900000
         83.66620000
         45.15740000
         24.96300000
         14.00430000
          7.83267000
          4.28410000
          2.28901000
          1.19436000
          0.59425800
          0.22727300
          0.09016600
          0.03565100
         15.07350000
          4.75570000
  0.0000290000 -0.0000110000  0.0000020000  0.0000040000 -0.0000080000  0.0000100000  0.0000140000  0.0000000000  0.0000000000  0.0000000000
  0.0000860000 -0.0000320000  0.0000060000  0.0000100000 -0.0000230000  0.0000290000  0.0000380000  0.0000000000  0.0000000000  0.0000000000
  0.0003190000 -0.0001200000  0.0000220000  0.0000400000 -0.0000890000  0.0001020000  0.0001520000  0.0000000000  0.0000000000  0.0000000000
  0.0010420000 -0.0003920000  0.0000720000  0.0001270000 -0.0002780000  0.0003700000  0.0004590000  0.0000000000  0.0000000000  0.0000000000
  0.0033820000 -0.0012760000  0.0002370000  0.0004290000 -0.0009650000  0.0010620000  0.0016600000  0.0000000000  0.0000000000  0.0000000000
  0.0102180000 -0.0038800000  0.0007110000  0.0012540000 -0.0027350000  0.0037250000  0.0045180000  0.0000000000  0.0000000000  0.0000000000
  0.0285420000 -0.0109680000  0.0020410000  0.0037040000 -0.0083440000  0.0090710000  0.0145030000  0.0000000000  0.0000000000  0.0000000000
  0.0709800000 -0.0278670000  0.0051170000  0.0090070000 -0.0196410000  0.0271760000  0.0328420000  0.0000000000  0.0000000000  0.0000000000
  0.1489460000 -0.0604080000  0.0113250000  0.0206180000 -0.0466850000  0.0492880000  0.0828600000  0.0000000000  0.0000000000  0.0000000000
  0.2476940000 -0.1045170000  0.0192410000  0.0335950000 -0.0724680000  0.1068350000  0.1181970000  0.0000000000  0.0000000000  0.0000000000
  0.3081340000 -0.1367160000  0.0262580000  0.0492430000 -0.1171690000  0.1107210000  0.2543090000  0.0000000000  0.0000000000  0.0000000000
  0.2485630000 -0.0949910000  0.0163940000  0.0268980000 -0.0661700000  0.2171670000  0.2760680000  0.0000000000  0.0000000000  0.0000000000
  0.1053980000  0.0828040000 -0.0177270000 -0.0259740000  0.0672210000 -0.3921410000 -1.4206840000  0.0000000000  0.0000000000  0.0000000000
  0.0180980000  0.3099380000 -0.0728180000 -0.1537760000  0.5455140000 -0.8336390000 -0.5341910000  0.0000000000  0.0000000000  0.0000000000
  0.0018050000  0.4014410000 -0.0887520000 -0.1514190000  0.2986520000  0.0643050000  2.8985470000  0.0000000000  0.0000000000  0.0000000000
  0.0005080000  0.2798230000 -0.0839300000 -0.1407890000 -0.3006940000  1.9844580000 -1.5851120000  0.0000000000  0.0000000000  0.0000000000
  0.0001340000  0.0844380000  0.0543040000  0.2265360000 -1.0330560000 -1.3037680000 -0.9388230000  0.0000000000  0.0000000000  0.0000000000
  0.0000180000  0.0057710000  0.3485410000  0.6573710000  0.3363690000 -0.6698580000  1.8070550000  0.0000000000  0.0000000000  0.0000000000
 -0.0000020000 -0.0000180000  0.5191090000  0.2855030000  0.5663970000  0.9791770000 -1.1246340000  0.0000000000  0.0000000000  0.0000000000
  0.0000000000  0.0000990000  0.2413650000  0.0042110000 -0.0127980000 -0.0372830000  0.0260450000  1.0000000000  0.0000000000  0.0000000000
  0.0000000000  0.0000000000  0.0000000000  0.0000000000  0.0000000000  0.0000000000  0.0000000000  0.0000000000  1.0000000000  0.0000000000
  0.0000000000  0.0000000000  0.0000000000  0.0000000000  0.0000000000  0.0000000000  0.0000000000  0.0000000000  0.0000000000  1.0000000000
* d-type functions
   14    8
        926.96270000
        270.10650000
        102.91590000
         44.88680000
         21.07092000
         10.42338000
          5.30689200
          2.70327000
          1.35365700
          0.65886800
          0.30750400
          0.13322100
         11.66200000
          7.29160000
  0.0001140000  0.0001590000  0.0001770000 -0.0002180000  0.0003280000  0.0000000000  0.0000000000  0.0000000000
  0.0010450000  0.0014620000  0.0016750000 -0.0022710000  0.0028660000  0.0000000000  0.0000000000  0.0000000000
  0.0060400000  0.0084850000  0.0096030000 -0.0120740000  0.0177090000  0.0000000000  0.0000000000  0.0000000000
  0.0238440000  0.0337380000  0.0389100000 -0.0531800000  0.0688210000  0.0000000000  0.0000000000  0.0000000000
  0.0688060000  0.0998900000  0.1173870000 -0.1581770000  0.2715290000  0.0000000000  0.0000000000  0.0000000000
  0.1498840000  0.2254390000  0.2969250000 -0.4540890000  0.6502930000  0.0000000000  0.0000000000  0.0000000000
  0.2374320000  0.3226860000  0.2963580000 -0.0494540000 -1.0108450000  0.0000000000  0.0000000000  0.0000000000
  0.2844710000  0.1867430000 -0.3097160000  0.9554020000 -0.5947150000  0.0000000000  0.0000000000  0.0000000000
  0.2718060000 -0.1836600000 -0.5814690000 -0.0124550000  1.7472200000  0.0000000000  0.0000000000  0.0000000000
  0.2029220000 -0.4166810000 -0.0557460000 -1.0231310000 -0.8204530000  0.0000000000  0.0000000000  0.0000000000
  0.1027770000 -0.3112890000  0.5580510000  0.2646770000 -0.6823180000  0.0000000000  0.0000000000  0.0000000000
  0.0229990000 -0.0880630000  0.3209740000  0.6096550000  0.8641720000  1.0000000000  0.0000000000  0.0000000000
  0.0000000000  0.0000000000  0.0000000000  0.0000000000  0.0000000000  0.0000000000  1.0000000000  0.0000000000
  0.0000000000  0.0000000000  0.0000000000  0.0000000000  0.0000000000  0.0000000000  0.0000000000  1.0000000000
* f-type functions
    5    5
         17.79780000
          7.99810000
          3.59420000
          1.61520000
          0.56730000
  1.0000000000  0.0000000000  0.0000000000  0.0000000000  0.0000000000
  0.0000000000  1.0000000000  0.0000000000  0.0000000000  0.0000000000
  0.0000000000  0.0000000000  1.0000000000  0.0000000000  0.0000000000
  0.0000000000  0.0000000000  0.0000000000  1.0000000000  0.0000000000
  0.0000000000  0.0000000000  0.0000000000  0.0000000000  1.0000000000
* g-type functions
    4    4
         12.86570000
          6.42480000
          3.20840000
          1.25240000
  1.0000000000  0.0000000000  0.0000000000  0.0000000000
  0.0000000000  1.0000000000  0.0000000000  0.0000000000
  0.0000000000  0.0000000000  1.0000000000  0.0000000000
  0.0000000000  0.0000000000  0.0000000000  1.0000000000
* h-type functions
    3    3
         11.19960000
          5.48040000
          2.39030000
  1.0000000000  0.0000000000  0.0000000000
  0.0000000000  1.0000000000  0.0000000000
  0.0000000000  0.0000000000  1.0000000000
* i-type functions
    2    2
         11.05490000
          5.63340000
  1.0000000000  0.0000000000
  0.0000000000  1.0000000000
