************************************************************************
* This file is part of OpenMolcas.                                     *
*                                                                      *
* OpenMolcas is free software; you can redistribute it and/or modify   *
* it under the terms of the GNU Lesser General Public License, v. 2.1. *
* OpenMolcas is distributed in the hope that it will be useful, but it *
* is provided "as is" and without any express or implied warranties.   *
* For more details see the full text of the license in the file        *
* LICENSE or in <http://www.gnu.org/licenses/>.                        *
************************************************************************
*  cc-pVTZ-DK  EMSL  Basis Set Exchange Library   2/3/16 8:00 AM
********************************************************************************
* Original basis sets:
* Elements                             References
* --------                             ----------
* H     : T.H. Dunning, Jr. J. Chem. Phys. 90, 1007 (1989).
* He    : D.E. Woon and T.H. Dunning, Jr. J. Chem. Phys. 100, 2975 (1994).
* B - Ne: T.H. Dunning, Jr. J. Chem. Phys. 90, 1007 (1989).
* Al - Ar: D.E. Woon and T.H. Dunning, Jr.  J. Chem. Phys. 98, 1358 (1993).
* Ga - Kr: A.K. Wilson, D.E. Woon, K.A. Peterson, T.H. Dunning, Jr., J. Chem. Phys., 110, 7667 (1999).
* Original exponents recontracted: W.A. de Jong, R.J. Harrison and D.A. Dixon, J. Chem. Phys. 114, 48 (2001).
* Sc - Zn: N.B. Balabanov and K.A. Peterson, J. Chem. Phys. 123, 064107 (2005)
********************************************************************************
/H.cc-pVTZ-DK..5s2p1d.3s2p1d.
For reference to original basis set, see header.
HYDROGEN       (5s,2p,1d) -> [3s,2p,1d]
         1.   2
* S-type functions
   5    3
            33.8700000
             5.0950000
             1.1590000
             0.3258000
             0.1027000
     0.0060773              0.0000000              0.0000000
     0.0453176              0.0000000              0.0000000
     0.2028364              0.0000000              0.0000000
     0.5038927              1.0000000              0.0000000
     0.3834137              0.0000000              1.0000000
* P-type functions
   2    2
             1.4070000
             0.3880000
     1.0000000              0.0000000
     0.0000000              1.0000000
* D-type functions
   1    1
             1.0570000
     1.0000000
/He.cc-pVTZ-DK..6s2p1d.3s2p1d.
For reference to original basis set, see header.
HELIUM       (6s,2p,1d) -> [3s,2p,1d]
         2.   2
* S-type functions
   6    3
           234.0000000
            35.1600000
             7.9890000
             2.2120000
             0.6669000
             0.2089000
     0.0026127              0.0000000              0.0000000
     0.0195588              0.0000000              0.0000000
     0.0910316              0.0000000              0.0000000
     0.2720643              0.0000000              0.0000000
     0.4780287              1.0000000              0.0000000
     0.3077322              0.0000000              1.0000000
* P-type functions
   2    2
             3.0440000
             0.7580000
     1.0000000              0.0000000
     0.0000000              1.0000000
* D-type functions
   1    1
             1.9650000
     1.0000000
/Li.cc-pVTZ-DK..11s5p2d1f.4s3p2d1f.
For reference to original basis set, see header.
LITHIUM       (11s,5p,2d,1f) -> [4s,3p,2d,1f]
         3.   3
* S-type functions
   11    4
          5988.0000000
           898.9000000
           205.9000000
            59.2400000
            19.8700000
             7.4060000
             2.9300000
             1.1890000
             0.4798000
             0.0750900
             0.0283200
     0.0001590             -0.0000248              0.0000000              0.0000000
     0.0010523             -0.0001652              0.0000000              0.0000000
     0.0053137             -0.0008272              0.0000000              0.0000000
     0.0209831             -0.0033354              0.0000000              0.0000000
     0.0664049             -0.0105312              0.0000000              0.0000000
     0.1658220             -0.0281109              0.0000000              0.0000000
     0.3150359             -0.0559366              0.0000000              0.0000000
     0.3934631             -0.0992549              0.0000000              0.0000000
     0.1908184             -0.1121221              0.0000000              0.0000000
     0.0054157              0.5680041              1.0000000              0.0000000
    -0.0013285              0.5302521              0.0000000              1.0000000
* P-type functions
   5    3
             3.2660000
             0.6511000
             0.1696000
             0.0557800
             0.0205000
     0.0086331              0.0000000              0.0000000
     0.0475337              0.0000000              0.0000000
     0.2097708              0.0000000              0.0000000
     0.5285213              1.0000000              0.0000000
     0.3827478              0.0000000              1.0000000
* D-type functions
   2    2
             0.1874000
             0.0801000
     1.0000000              0.0000000
     0.0000000              1.0000000
* F-type functions
   1    1
             0.1829000
     1.0000000
/Be.cc-pVTZ-DK..11s5p2d1f.4s3p2d1f.
For reference to original basis set, see header.
BERYLLIUM       (11s,5p,2d,1f) -> [4s,3p,2d,1f]
         4.   3
* S-type functions
   11    4
          6863.0000000
          1030.0000000
           234.7000000
            66.5600000
            21.6900000
             7.7340000
             2.9160000
             1.1300000
             0.2577000
             0.1101000
             0.0440900
     0.0002897             -0.0000529              0.0000000              0.0000000
     0.0018847             -0.0003433              0.0000000              0.0000000
     0.0095429             -0.0017537              0.0000000              0.0000000
     0.0380762             -0.0070364              0.0000000              0.0000000
     0.1200942             -0.0231606              0.0000000              0.0000000
     0.2822115             -0.0581609              0.0000000              0.0000000
     0.4273153             -0.1145859              0.0000000              0.0000000
     0.2661276             -0.1357835              0.0000000              0.0000000
     0.0182046              0.2282128              1.0000000              0.0000000
    -0.0072870              0.5773731              0.0000000              0.0000000
     0.0019071              0.3177456              0.0000000              1.0000000
* P-type functions
   5    3
             7.4360000
             1.5770000
             0.4352000
             0.1438000
             0.0499400
     0.0107482              0.0000000              0.0000000
     0.0628561              0.0000000              0.0000000
     0.2481982              0.0000000              0.0000000
     0.5236405              1.0000000              0.0000000
     0.3534752              0.0000000              1.0000000
* D-type functions
   2    2
             0.3480000
             0.1803000
     1.0000000              0.0000000
     0.0000000              1.0000000
* F-type functions
   1    1
             0.3250000
     1.0000000
/B.cc-pVTZ-DK..10s5p2d1f.4s3p2d1f.
For reference to original basis set, see header.
BORON       (10s,5p,2d,1f) -> [4s,3p,2d,1f]
         5.   3
* S-type functions
   10    4
          5473.0000000
           820.9000000
           186.8000000
            52.8300000
            17.0800000
             5.9990000
             2.2080000
             0.5879000
             0.2415000
             0.0861000
     0.0006618             -0.0001338              0.0000000              0.0000000
     0.0044078             -0.0008927              0.0000000              0.0000000
     0.0221381             -0.0045253              0.0000000              0.0000000
     0.0846659             -0.0177437              0.0000000              0.0000000
     0.2387201             -0.0537048              0.0000000              0.0000000
     0.4349692             -0.1190598              0.0000000              0.0000000
     0.3416948             -0.1656727              0.0000000              0.0000000
     0.0368060              0.1204882              1.0000000              0.0000000
    -0.0095262              0.5959798              0.0000000              0.0000000
     0.0023625              0.4106891              0.0000000              1.0000000
* P-type functions
   5    3
            12.0500000
             2.6130000
             0.7475000
             0.2385000
             0.0769800
     0.0131399              0.0000000              0.0000000
     0.0799035              0.0000000              0.0000000
     0.2772102              0.0000000              0.0000000
     0.5041951              1.0000000              0.0000000
     0.3538280              0.0000000              1.0000000
* D-type functions
   2    2
             0.6610000
             0.1990000
     1.0000000              0.0000000
     0.0000000              1.0000000
* F-type functions
   1    1
             0.4900000
     1.0000000
/C.cc-pVTZ-DK..10s5p2d1f.4s3p2d1f.
For reference to original basis set, see header.
CARBON       (10s,5p,2d,1f) -> [4s,3p,2d,1f]
         6.   3
* S-type functions
   10    4
          8236.0000000
          1235.0000000
           280.8000000
            79.2700000
            25.5900000
             8.9970000
             3.3190000
             0.9059000
             0.3643000
             0.1285000
     0.0006772             -0.0001445              0.0000000              0.0000000
     0.0042785             -0.0009156              0.0000000              0.0000000
     0.0213576             -0.0046031              0.0000000              0.0000000
     0.0821858             -0.0182284              0.0000000              0.0000000
     0.2350715             -0.0558690              0.0000000              0.0000000
     0.4342613             -0.1269889              0.0000000              0.0000000
     0.3457333             -0.1701050              0.0000000              0.0000000
     0.0392977              0.1409766              1.0000000              0.0000000
    -0.0089547              0.5986760              0.0000000              0.0000000
     0.0023774              0.3948686              0.0000000              1.0000000
* P-type functions
   5    3
            18.7100000
             4.1330000
             1.2000000
             0.3827000
             0.1209000
     0.0140738              0.0000000              0.0000000
     0.0869016              0.0000000              0.0000000
     0.2902016              0.0000000              0.0000000
     0.5009039              1.0000000              0.0000000
     0.3435238              0.0000000              1.0000000
* D-type functions
   2    2
             1.0970000
             0.3180000
     1.0000000              0.0000000
     0.0000000              1.0000000
* F-type functions
   1    1
             0.7610000
     1.0000000
/N.cc-pVTZ-DK..10s5p2d1f.4s3p2d1f.
For reference to original basis set, see header.
NITROGEN       (10s,5p,2d,1f) -> [4s,3p,2d,1f]
         7.   3
* S-type functions
   10    4
         11420.0000000
          1712.0000000
           389.3000000
           110.0000000
            35.5700000
            12.5400000
             4.6440000
             1.2930000
             0.5118000
             0.1787000
     0.0007127             -0.0001573              0.0000000              0.0000000
     0.0042813             -0.0009485              0.0000000              0.0000000
     0.0211421             -0.0047127              0.0000000              0.0000000
     0.0811887             -0.0186658              0.0000000              0.0000000
     0.2334368             -0.0575021              0.0000000              0.0000000
     0.4333154             -0.1322177              0.0000000              0.0000000
     0.3469116             -0.1721464              0.0000000              0.0000000
     0.0411585              0.1526621              1.0000000              0.0000000
    -0.0084838              0.5999371              0.0000000              0.0000000
     0.0023779              0.3867086              0.0000000              1.0000000
* P-type functions
   5    3
            26.6300000
             5.9480000
             1.7420000
             0.5550000
             0.1725000
     0.0147368              0.0000000              0.0000000
     0.0918329              0.0000000              0.0000000
     0.2986885              0.0000000              0.0000000
     0.4983558              1.0000000              0.0000000
     0.3371320              0.0000000              1.0000000
* D-type functions
   2    2
             1.6540000
             0.4690000
     1.0000000              0.0000000
     0.0000000              1.0000000
* F-type functions
   1    1
             1.0930000
     1.0000000
/O.cc-pVTZ-DK..10s5p2d1f.4s3p2d1f.
For reference to original basis set, see header.
OXYGEN       (10s,5p,2d,1f) -> [4s,3p,2d,1f]
         8.   3
* S-type functions
   10    4
         15330.0000000
          2299.0000000
           522.4000000
           147.3000000
            47.5500000
            16.7600000
             6.2070000
             1.7520000
             0.6882000
             0.2384000
     0.0007428             -0.0001688              0.0000000              0.0000000
     0.0042405             -0.0009679              0.0000000              0.0000000
     0.0207194             -0.0047549              0.0000000              0.0000000
     0.0797931             -0.0189126              0.0000000              0.0000000
     0.2311816             -0.0586914              0.0000000              0.0000000
     0.4328845             -0.1366626              0.0000000              0.0000000
     0.3495073             -0.1752353              0.0000000              0.0000000
     0.0425850              0.1620920              1.0000000              0.0000000
    -0.0081229              0.6033925              0.0000000              0.0000000
     0.0023725              0.3777452              0.0000000              1.0000000
* P-type functions
   5    3
            34.4600000
             7.7490000
             2.2800000
             0.7156000
             0.2140000
     0.0160267              0.0000000              0.0000000
     0.0998490              0.0000000              0.0000000
     0.3105086              0.0000000              0.0000000
     0.4908599              1.0000000              0.0000000
     0.3364468              0.0000000              1.0000000
* D-type functions
   2    2
             2.3140000
             0.6450000
     1.0000000              0.0000000
     0.0000000              1.0000000
* F-type functions
   1    1
             1.4280000
     1.0000000
/F.cc-pVTZ-DK..10s5p2d1f.4s3p2d1f.
For reference to original basis set, see header.
FLUORINE       (10s,5p,2d,1f) -> [4s,3p,2d,1f]
         9.   3
* S-type functions
   10    4
         19500.0000000
          2923.0000000
           664.5000000
           187.5000000
            60.6200000
            21.4200000
             7.9500000
             2.2570000
             0.8815000
             0.3041000
     0.0007913             -0.0001835              0.0000000              0.0000000
     0.0043210             -0.0010071              0.0000000              0.0000000
     0.0208039             -0.0048719              0.0000000              0.0000000
     0.0797933             -0.0193323              0.0000000              0.0000000
     0.2310785             -0.0599582              0.0000000              0.0000000
     0.4325780             -0.1402744              0.0000000              0.0000000
     0.3489945             -0.1761052              0.0000000              0.0000000
     0.0430476              0.1731350              1.0000000              0.0000000
    -0.0078525              0.6049737              0.0000000              0.0000000
     0.0023733              0.3682007              0.0000000              1.0000000
* P-type functions
   5    3
            43.8800000
             9.9260000
             2.9300000
             0.9132000
             0.2672000
     0.0168000              0.0000000              0.0000000
     0.1046299              0.0000000              0.0000000
     0.3172873              0.0000000              0.0000000
     0.4871668              1.0000000              0.0000000
     0.3346771              0.0000000              1.0000000
* D-type functions
   2    2
             3.1070000
             0.8550000
     1.0000000              0.0000000
     0.0000000              1.0000000
* F-type functions
   1    1
             1.9170000
     1.0000000
/Ne.cc-pVTZ-DK..10s5p2d1f.4s3p2d1f.
For reference to original basis set, see header.
NEON       (10s,5p,2d,1f) -> [4s,3p,2d,1f]
         10.   3
* S-type functions
   10    4
         24350.0000000
          3650.0000000
           829.6000000
           234.0000000
            75.6100000
            26.7300000
             9.9270000
             2.8360000
             1.1020000
             0.3782000
     0.0008358             -0.0001967              0.0000000              0.0000000
     0.0043745             -0.0010354              0.0000000              0.0000000
     0.0207423             -0.0049308              0.0000000              0.0000000
     0.0793936             -0.0195454              0.0000000              0.0000000
     0.2304832             -0.0607585              0.0000000              0.0000000
     0.4323621             -0.1428460              0.0000000              0.0000000
     0.3494274             -0.1768425              0.0000000              0.0000000
     0.0436752              0.1792556              1.0000000              0.0000000
    -0.0075967              0.6057343              0.0000000              0.0000000
     0.0023610              0.3634608              0.0000000              1.0000000
* P-type functions
   5    3
            54.7000000
            12.4300000
             3.6790000
             1.1430000
             0.3300000
     0.0173278              0.0000000              0.0000000
     0.1078707              0.0000000              0.0000000
     0.3217252              0.0000000              0.0000000
     0.4850163              1.0000000              0.0000000
     0.3326429              0.0000000              1.0000000
* D-type functions
   2    2
             4.0140000
             1.0960000
     1.0000000              0.0000000
     0.0000000              1.0000000
* F-type functions
   1    1
             2.5440000
     1.0000000
/Na.cc-pVTZ-DK..16s10p2d1f.5s4p2d1f.
For reference to original basis set, see header.
SODIUM       (16s,10p,2d,1f) -> [5s,4p,2d,1f]
         11.   3
* S-type functions
   16    5
        423000.0000000
         63340.0000000
         14410.0000000
          4077.0000000
          1328.0000000
           478.6000000
           186.2000000
            76.9200000
            33.3200000
            15.0000000
             6.8690000
             2.6830000
             1.1090000
             0.4540000
             0.0601500
             0.0238200
     0.0000890             -0.0000218              0.0000033              0.0000000              0.0000000
     0.0003055             -0.0000749              0.0000113              0.0000000              0.0000000
     0.0010495             -0.0002571              0.0000387              0.0000000              0.0000000
     0.0035692             -0.0008795              0.0001320              0.0000000              0.0000000
     0.0118412             -0.0029209              0.0004406              0.0000000              0.0000000
     0.0361339             -0.0091129              0.0013683              0.0000000              0.0000000
     0.0969663             -0.0251502              0.0038100              0.0000000              0.0000000
     0.2144124             -0.0610296              0.0092122              0.0000000              0.0000000
     0.3483759             -0.1167017              0.0180161              0.0000000              0.0000000
     0.3233780             -0.1621266              0.0251437              0.0000000              0.0000000
     0.1120091             -0.0422846              0.0072823              0.0000000              0.0000000
     0.0070223              0.3395466             -0.0616094              0.0000000              0.0000000
     0.0005966              0.5607534             -0.1163041              0.0000000              0.0000000
     0.0002026              0.2434711             -0.1576827              1.0000000              0.0000000
    -0.0000050              0.0040000              0.6290489              0.0000000              0.0000000
     0.0000017             -0.0012425              0.4725690              0.0000000              1.0000000
* P-type functions
   10    4
           243.3000000
            57.3900000
            18.1000000
             6.5750000
             2.5210000
             0.9607000
             0.3512000
             0.0982700
             0.0373400
             0.0150000
     0.0023360             -0.0002316              0.0000000              0.0000000
     0.0175708             -0.0017602              0.0000000              0.0000000
     0.0776875             -0.0077836              0.0000000              0.0000000
     0.2192534             -0.0225358              0.0000000              0.0000000
     0.3784065             -0.0384212              0.0000000              0.0000000
     0.3946998             -0.0450032              0.0000000              0.0000000
     0.1604432             -0.0191964              0.0000000              0.0000000
     0.0023645              0.1827235              0.0000000              0.0000000
     0.0019896              0.5578974              1.0000000              0.0000000
    -0.0007763              0.3729930              0.0000000              1.0000000
* D-type functions
   2    2
             0.1367000
             0.0636000
     1.0000000              0.0000000
     0.0000000              1.0000000
* F-type functions
   1    1
             0.1397000
     1.0000000
/Mg.cc-pVTZ-DK..15s10p2d1f.5s4p2d1f.
For reference to original basis set, see header.
MAGNESIUM       (15s,10p,2d,1f) -> [5s,4p,2d,1f]
         12.   3
* S-type functions
   15    5
        164900.0000000
         24710.0000000
          5628.0000000
          1596.0000000
           521.0000000
           188.0000000
            73.0100000
            29.9000000
            12.5400000
             4.3060000
             1.8260000
             0.7417000
             0.1457000
             0.0761200
             0.0331000
     0.0002422             -0.0000614              0.0000118              0.0000000              0.0000000
     0.0009215             -0.0002342              0.0000451              0.0000000              0.0000000
     0.0035555             -0.0009030              0.0001742              0.0000000              0.0000000
     0.0131266             -0.0033736              0.0006501              0.0000000              0.0000000
     0.0438767             -0.0114009              0.0022034              0.0000000              0.0000000
     0.1242674             -0.0341221              0.0066013              0.0000000              0.0000000
     0.2754606             -0.0831202              0.0162441              0.0000000              0.0000000
     0.4008546             -0.1595571              0.0316427              0.0000000              0.0000000
     0.2632257             -0.1513356              0.0312732              0.0000000              0.0000000
     0.0330029              0.1935020             -0.0444516              0.0000000              0.0000000
    -0.0043711              0.5798608             -0.1516479              0.0000000              0.0000000
     0.0020420              0.3696639             -0.2163940              0.0000000              0.0000000
    -0.0008300              0.0206517              0.2630443              1.0000000              0.0000000
     0.0007009             -0.0115917              0.5453010              0.0000000              0.0000000
    -0.0001985              0.0026864              0.3247820              0.0000000              1.0000000
* P-type functions
   10    4
           316.9000000
            74.8600000
            23.7200000
             8.6690000
             3.3630000
             1.3100000
             0.4911000
             0.2364000
             0.0873300
             0.0323700
     0.0021856             -0.0003462              0.0000000              0.0000000
     0.0164985             -0.0026128              0.0000000              0.0000000
     0.0742262             -0.0119341              0.0000000              0.0000000
     0.2145337             -0.0349344              0.0000000              0.0000000
     0.3820475             -0.0637955              0.0000000              0.0000000
     0.3978887             -0.0700523              0.0000000              0.0000000
     0.1528155             -0.0382229              0.0000000              0.0000000
    -0.0043175              0.1775221              0.0000000              0.0000000
     0.0062957              0.5618127              1.0000000              0.0000000
    -0.0015671              0.4014641              0.0000000              1.0000000
* D-type functions
   2    2
             0.1260000
             0.2940000
     1.0000000              0.0000000
     0.0000000              1.0000000
* F-type functions
   1    1
             0.2520000
     1.0000000
/Al.cc-pVTZ-DK..15s9p2d1f.5s4p2d1f.
For reference to original basis set, see header.
ALUMINUM       (15s,9p,2d,1f) -> [5s,4p,2d,1f]
         13.   3
* S-type functions
   15    5
        205500.0000000
         30780.0000000
          7006.0000000
          1985.0000000
           649.1000000
           235.0000000
            91.6200000
            37.6700000
            15.9100000
             5.8500000
             2.5420000
             1.0570000
             0.2931000
             0.1455000
             0.0565000
     0.0002486             -0.0000649              0.0000150              0.0000000              0.0000000
     0.0009183             -0.0002401              0.0000554              0.0000000              0.0000000
     0.0034388             -0.0009000              0.0002080              0.0000000              0.0000000
     0.0124309             -0.0032826              0.0007579              0.0000000              0.0000000
     0.0411372             -0.0110170              0.0025517              0.0000000              0.0000000
     0.1165198             -0.0327430              0.0075909              0.0000000              0.0000000
     0.2617217             -0.0809702              0.0189792              0.0000000              0.0000000
     0.3953985             -0.1571116              0.0373779              0.0000000              0.0000000
     0.2827977             -0.1667395              0.0415027              0.0000000              0.0000000
     0.0440595              0.1299949             -0.0362454              0.0000000              0.0000000
    -0.0048440              0.5619410             -0.1759455              0.0000000              0.0000000
     0.0025850              0.4337633             -0.2747958              0.0000000              0.0000000
    -0.0010760              0.0348981              0.1121380              1.0000000              0.0000000
     0.0007132             -0.0111008              0.6521109              0.0000000              0.0000000
    -0.0001763              0.0021223              0.3923719              0.0000000              1.0000000
* P-type functions
   9    4
           444.4000000
           105.1000000
            33.4700000
            12.3300000
             4.8690000
             1.9610000
             0.7834000
             0.1888000
             0.0555700
     0.0017470             -0.0003076              0.0000000              0.0000000
     0.0133061             -0.0024646              0.0000000              0.0000000
     0.0616623             -0.0109375              0.0000000              0.0000000
     0.1882350             -0.0364711              0.0000000              0.0000000
     0.3604280             -0.0640394              0.0000000              0.0000000
     0.4080722             -0.0970652              0.0000000              0.0000000
     0.1884779              0.0148875              1.0000000              0.0000000
     0.0097994              0.5027104              0.0000000              0.0000000
    -0.0011582              0.5986296              0.0000000              1.0000000
* D-type functions
   2    2
             0.1090000
             0.3330000
     1.0000000              0.0000000
     0.0000000              1.0000000
* F-type functions
   1    1
             0.2440000
     1.0000000
/Si.cc-pVTZ-DK..15s9p2d1f.5s4p2d1f.
For reference to original basis set, see header.
SILICON       (15s,9p,2d,1f) -> [5s,4p,2d,1f]
         14.   3
* S-type functions
   15    5
        254900.0000000
         38190.0000000
          8690.0000000
          2462.0000000
           804.8000000
           291.3000000
           113.6000000
            46.7500000
            19.8200000
             7.7080000
             3.3400000
             1.4020000
             0.4387000
             0.2070000
             0.0794400
     0.0002529             -0.0000676              0.0000173              0.0000000              0.0000000
     0.0009090             -0.0002434              0.0000624              0.0000000              0.0000000
     0.0033025             -0.0008863              0.0002272              0.0000000              0.0000000
     0.0116759             -0.0031552              0.0008085              0.0000000              0.0000000
     0.0383795             -0.0105363              0.0027076              0.0000000              0.0000000
     0.1092047             -0.0312848              0.0080506              0.0000000              0.0000000
     0.2490127             -0.0785245              0.0204261              0.0000000              0.0000000
     0.3899473             -0.1546506              0.0408728              0.0000000              0.0000000
     0.2998830             -0.1786818              0.0494300              0.0000000              0.0000000
     0.0553498              0.0834192             -0.0259952              0.0000000              0.0000000
    -0.0039710              0.5485415             -0.1915191              0.0000000              0.0000000
     0.0025494              0.4767448             -0.3167253              0.0000000              0.0000000
    -0.0010249              0.0463236              0.0989272              1.0000000              0.0000000
     0.0006001             -0.0103212              0.6807332              0.0000000              0.0000000
    -0.0001520              0.0021104              0.3928083              0.0000000              1.0000000
* P-type functions
   9    4
           481.5000000
           113.9000000
            36.2300000
            13.3400000
             5.2520000
             2.1200000
             0.8561000
             0.2528000
             0.0788900
     0.0020745             -0.0004381              0.0000000              0.0000000
     0.0156644             -0.0034247              0.0000000              0.0000000
     0.0719518             -0.0154023              0.0000000              0.0000000
     0.2134897             -0.0489931              0.0000000              0.0000000
     0.3902729             -0.0854192              0.0000000              0.0000000
     0.3932155             -0.1119097              0.0000000              0.0000000
     0.1323843              0.0620526              1.0000000              0.0000000
     0.0039858              0.5513707              0.0000000              0.0000000
     0.0003251              0.5239086              0.0000000              1.0000000
* D-type functions
   2    2
             0.1590000
             0.4810000
     1.0000000              0.0000000
     0.0000000              1.0000000
* F-type functions
   1    1
             0.3360000
     1.0000000
/P.cc-pVTZ-DK..15s9p2d1f.5s4p2d1f.
For reference to original basis set, see header.
PHOSPHOROUS       (15s,9p,2d,1f) -> [5s,4p,2d,1f]
         15.   3
* S-type functions
   15    5
        312400.0000000
         46800.0000000
         10650.0000000
          3018.0000000
           986.8000000
           357.4000000
           139.6000000
            57.6300000
            24.6000000
            10.1200000
             4.2830000
             1.8050000
             0.6158000
             0.2782000
             0.1055000
     0.0002571             -0.0000702             -0.0000193              0.0000000              0.0000000
     0.0009020             -0.0002465             -0.0000677              0.0000000              0.0000000
     0.0031853             -0.0008732             -0.0002401              0.0000000              0.0000000
     0.0110055             -0.0030327             -0.0008334              0.0000000              0.0000000
     0.0358359             -0.0100473             -0.0027699              0.0000000              0.0000000
     0.1021861             -0.0297436             -0.0082076              0.0000000              0.0000000
     0.2357207             -0.0754666             -0.0210652              0.0000000              0.0000000
     0.3815204             -0.1504688             -0.0426310              0.0000000              0.0000000
     0.3156027             -0.1878391             -0.0558250              0.0000000              0.0000000
     0.0699621              0.0403987              0.0140284              0.0000000              0.0000000
    -0.0017854              0.5308169              0.1981170              0.0000000              0.0000000
     0.0021312              0.5151652              0.3517465              0.0000000              0.0000000
    -0.0008219              0.0590524             -0.0789700              1.0000000              0.0000000
     0.0004255             -0.0089109             -0.7008474              0.0000000              0.0000000
    -0.0001125              0.0020179             -0.4011858              0.0000000              1.0000000
* P-type functions
   9    4
           504.9000000
           119.4000000
            37.9600000
            13.9500000
             5.4570000
             2.1770000
             0.8010000
             0.2877000
             0.0971400
     0.0025366             -0.0006028              0.0000000              0.0000000
     0.0189426             -0.0045552              0.0000000              0.0000000
     0.0856706             -0.0208047              0.0000000              0.0000000
     0.2451121             -0.0618635              0.0000000              0.0000000
     0.4225698             -0.1088145              0.0000000              0.0000000
     0.3677769             -0.1052149              0.0000000              0.0000000
     0.0771283              0.1537547              1.0000000              0.0000000
    -0.0037587              0.5764654              0.0000000              0.0000000
     0.0015924              0.4227272              0.0000000              1.0000000
* D-type functions
   2    2
             0.2160000
             0.6520000
     1.0000000              0.0000000
     0.0000000              1.0000000
* F-type functions
   1    1
             0.4520000
     1.0000000
/S.cc-pVTZ-DK..15s9p2d1f.5s4p2d1f.
For reference to original basis set, see header.
SULFUR       (15s,9p,2d,1f) -> [5s,4p,2d,1f]
         16.   3
* S-type functions
   15    5
        374100.0000000
         56050.0000000
         12760.0000000
          3615.0000000
          1183.0000000
           428.8000000
           167.8000000
            69.4700000
            29.8400000
            12.7200000
             5.2440000
             2.2190000
             0.7767000
             0.3490000
             0.1322000
     0.0002638             -0.0000733              0.0000213              0.0000000              0.0000000
     0.0009062             -0.0002521              0.0000732              0.0000000              0.0000000
     0.0031247             -0.0008725              0.0002535              0.0000000              0.0000000
     0.0105603             -0.0029604              0.0008599              0.0000000              0.0000000
     0.0340035             -0.0097096              0.0028283              0.0000000              0.0000000
     0.0969219             -0.0286229              0.0083497              0.0000000              0.0000000
     0.2252582             -0.0731204              0.0215638              0.0000000              0.0000000
     0.3735512             -0.1470961              0.0440714              0.0000000              0.0000000
     0.3262878             -0.1935729              0.0607406              0.0000000              0.0000000
     0.0836129              0.0128266             -0.0051710              0.0000000              0.0000000
     0.0004429              0.5194749             -0.2066834              0.0000000              0.0000000
     0.0016215              0.5375512             -0.3796525              0.0000000              0.0000000
    -0.0006113              0.0670265              0.0885035              1.0000000              0.0000000
     0.0002957             -0.0088273              0.7139336              0.0000000              0.0000000
    -0.0000827              0.0021766              0.3896798              0.0000000              1.0000000
* P-type functions
   9    4
           574.4000000
           135.8000000
            43.1900000
            15.8700000
             6.2080000
             2.4830000
             0.8688000
             0.3229000
             0.1098000
     0.0026583             -0.0006804              0.0000000              0.0000000
     0.0197601             -0.0050630              0.0000000              0.0000000
     0.0893840             -0.0234889              0.0000000              0.0000000
     0.2552538             -0.0686526              0.0000000              0.0000000
     0.4337250             -0.1237698              0.0000000              0.0000000
     0.3541224             -0.0963932              0.0000000              0.0000000
     0.0617460              0.2285739              1.0000000              0.0000000
    -0.0050047              0.5688332              0.0000000              0.0000000
     0.0020933              0.3665018              0.0000000              1.0000000
* D-type functions
   2    2
             0.2690000
             0.8190000
     1.0000000              0.0000000
     0.0000000              1.0000000
* F-type functions
   1    1
             0.5570000
     1.0000000
/Cl.cc-pVTZ-DK..15s9p2d1f.5s4p2d1f.
For reference to original basis set, see header.
CHLORINE       (15s,9p,2d,1f) -> [5s,4p,2d,1f]
         17.   3
* S-type functions
   15    5
        456100.0000000
         68330.0000000
         15550.0000000
          4405.0000000
          1439.0000000
           520.4000000
           203.1000000
            83.9600000
            36.2000000
            15.8300000
             6.3340000
             2.6940000
             0.9768000
             0.4313000
             0.1625000
     0.0002645             -0.0000747              0.0000226              0.0000000              0.0000000
     0.0008905             -0.0002515              0.0000761              0.0000000              0.0000000
     0.0029934             -0.0008492              0.0002572              0.0000000              0.0000000
     0.0098871             -0.0028128              0.0008515              0.0000000              0.0000000
     0.0315606             -0.0091519              0.0027786              0.0000000              0.0000000
     0.0903711             -0.0269903              0.0082052              0.0000000              0.0000000
     0.2134406             -0.0699330              0.0214933              0.0000000              0.0000000
     0.3646772             -0.1426906              0.0445276              0.0000000              0.0000000
     0.3377387             -0.1978853              0.0646680              0.0000000              0.0000000
     0.1006810             -0.0143283              0.0041911              0.0000000              0.0000000
     0.0030732              0.5036507             -0.2092752              0.0000000              0.0000000
     0.0010373              0.5584234             -0.4033247              0.0000000              0.0000000
    -0.0003695              0.0768656              0.0827071              1.0000000              0.0000000
     0.0001520             -0.0080500              0.7256082              0.0000000              0.0000000
    -0.0000502              0.0022404              0.3896193              0.0000000              1.0000000
* P-type functions
   9    4
           663.3000000
           156.8000000
            49.9800000
            18.4200000
             7.2400000
             2.9220000
             1.0220000
             0.3818000
             0.1301000
     0.0026741             -0.0007253              0.0000000              0.0000000
     0.0197715             -0.0053474              0.0000000              0.0000000
     0.0894991             -0.0249761              0.0000000              0.0000000
     0.2567502             -0.0730005              0.0000000              0.0000000
     0.4366374             -0.1338923              0.0000000              0.0000000
     0.3493206             -0.0940334              0.0000000              0.0000000
     0.0583589              0.2627700              1.0000000              0.0000000
    -0.0045545              0.5640464              0.0000000              0.0000000
     0.0022637              0.3413419              0.0000000              1.0000000
* D-type functions
   2    2
             1.0460000
             0.3440000
     1.0000000              0.0000000
     0.0000000              1.0000000
* F-type functions
   1    1
             0.7060000
     1.0000000
/Ar.cc-pVTZ-DK..15s9p2d1f.5s4p2d1f.
For reference to original basis set, see header.
ARGON       (15s,9p,2d,1f) -> [5s,4p,2d,1f]
         18.   3
* S-type functions
   15    5
        545000.0000000
         81640.0000000
         18580.0000000
          5261.0000000
          1717.0000000
           619.9000000
           241.6000000
            99.7900000
            43.1500000
            19.1400000
             7.4880000
             3.2050000
             1.1960000
             0.5204000
             0.1954000
     0.0002676             -0.0000766              0.0000239              0.0000000              0.0000000
     0.0008851             -0.0002534              0.0000792              0.0000000              0.0000000
     0.0029115             -0.0008375              0.0002620              0.0000000              0.0000000
     0.0094107             -0.0027127              0.0008483              0.0000000              0.0000000
     0.0297252             -0.0087370              0.0027402              0.0000000              0.0000000
     0.0852189             -0.0257215              0.0080774              0.0000000              0.0000000
     0.2035465             -0.0672613              0.0213514              0.0000000              0.0000000
     0.3562637             -0.1389310              0.0447653              0.0000000              0.0000000
     0.3461000             -0.2003327              0.0675613              0.0000000              0.0000000
     0.1164162             -0.0353876              0.0119876              0.0000000              0.0000000
     0.0055038              0.4896428             -0.2109174              0.0000000              0.0000000
     0.0004726              0.5732040             -0.4221521              0.0000000              0.0000000
    -0.0001435              0.0853490              0.0782418              1.0000000              0.0000000
     0.0000270             -0.0070177              0.7337362              0.0000000              0.0000000
    -0.0000223              0.0022471              0.3904707              0.0000000              1.0000000
* P-type functions
   9    4
           761.8000000
           180.2000000
            57.5000000
            21.2400000
             8.3880000
             3.4160000
             1.2060000
             0.4523000
             0.1545000
     0.0026746             -0.0007530              0.0000000              0.0000000
     0.0196563             -0.0055091              0.0000000              0.0000000
     0.0892268             -0.0258919              0.0000000              0.0000000
     0.2572532             -0.0759587              0.0000000              0.0000000
     0.4383940             -0.1409826              0.0000000              0.0000000
     0.3463553             -0.0923338              0.0000000              0.0000000
     0.0564312              0.2834898              1.0000000              0.0000000
    -0.0052053              0.5617501              0.0000000              0.0000000
     0.0016351              0.3250410              0.0000000              1.0000000
* D-type functions
   2    2
             0.4100000
             1.2540000
     1.0000000              0.0000000
     0.0000000              1.0000000
* F-type functions
   1    1
             0.8900000
     1.0000000
/Sc.cc-pVTZ-DK..20s16p8d2f1g.7s6p4d2f1g.
For reference to original basis set, see header.
SCANDIUM       (20s,16p,8d,2f,1g) -> [7s,6p,4d,2f,1g]
         21.   4
* S-type functions
   20    7
        2715278.0000000
        406598.4000000
         92530.0400000
         26207.9200000
          8549.4290000
          3085.9750000
          1203.1720000
           498.4869000
           216.7360000
            97.8747600
            45.2043300
            20.2118700
             9.5747510
             4.5403460
             1.9956870
             0.9422150
             0.4178450
             0.0957610
             0.0513510
             0.0238780
     0.0001060             -0.0000610              0.0000120             -0.0000030             -0.0000050             -0.0000080              0.0000000
     0.0003170             -0.0001820              0.0000360             -0.0000090             -0.0000150             -0.0000240              0.0000000
     0.0009050             -0.0005200              0.0001020             -0.0000250             -0.0000430             -0.0000670              0.0000000
     0.0024640             -0.0014170              0.0002800             -0.0000680             -0.0001190             -0.0001900              0.0000000
     0.0067800             -0.0039120              0.0007740             -0.0001870             -0.0003170             -0.0004920              0.0000000
     0.0186790             -0.0108530              0.0021630             -0.0005230             -0.0009330             -0.0015120              0.0000000
     0.0494180             -0.0291550              0.0058830             -0.0014240             -0.0023690             -0.0036160              0.0000000
     0.1172100             -0.0716000              0.0148870             -0.0035970             -0.0065510             -0.0107900              0.0000000
     0.2280410             -0.1504450              0.0331320             -0.0080330             -0.0129980             -0.0193510              0.0000000
     0.3098720             -0.2435420              0.0602850             -0.0145980             -0.0278890             -0.0476760              0.0000000
     0.2175500             -0.2334530              0.0674590             -0.0165140             -0.0226520             -0.0281580              0.0000000
     0.0724860              0.0449970             -0.0250150              0.0062890             -0.0046730             -0.0279470              0.0000000
     0.1159500              0.4960340             -0.2708040              0.0682630              0.1586420              0.3104550              0.0000000
     0.1166380              0.4848560             -0.4320030              0.1165590              0.1412640              0.1769890              0.0000000
     0.0198230              0.0875670              0.0764930             -0.0299490              0.0934350              0.2158550              0.0000000
    -0.0004880             -0.0052830              0.7030970             -0.2308390             -0.8973280             -2.3880850              0.0000000
     0.0001830              0.0006420              0.4425890             -0.3023230              0.0597060              2.3878380              0.0000000
    -0.0000700             -0.0006970              0.0281380              0.2699030              2.3097260              0.8272680              0.0000000
     0.0000630              0.0005790             -0.0122190              0.5919260             -1.2862210             -3.3417860              0.0000000
    -0.0000130             -0.0001410              0.0042310              0.3036850             -0.7165160              2.2216750              1.0000000
* P-type functions
   16    6
         10592.1900000
          2507.5330000
           814.4571000
           311.5195000
           131.9617000
            59.9871800
            28.6625000
            14.1085100
             7.1037060
             3.6092000
             1.7760700
             0.8547600
             0.4022390
             0.1546800
             0.0648880
             0.0263010
     0.0001010             -0.0000330             -0.0000080              0.0000100              0.0000200              0.0000000
     0.0005310             -0.0001740             -0.0000420              0.0000520              0.0000990              0.0000000
     0.0026120             -0.0008600             -0.0002100              0.0002530              0.0005400              0.0000000
     0.0106240             -0.0035150             -0.0008550              0.0010510              0.0019760              0.0000000
     0.0359750             -0.0120540             -0.0029520              0.0035550              0.0076190              0.0000000
     0.0992420             -0.0340690             -0.0083120              0.0102180              0.0189350              0.0000000
     0.2117340             -0.0752130             -0.0185310              0.0222040              0.0488650              0.0000000
     0.3300720             -0.1224250             -0.0300330              0.0372860              0.0648610              0.0000000
     0.3297560             -0.1293380             -0.0326410              0.0378240              0.1074880              0.0000000
     0.1568380              0.0162740              0.0083480             -0.0049720             -0.0607580              0.0000000
     0.0218050              0.3101820              0.0879920             -0.1112850             -0.1669220              0.0000000
    -0.0017970              0.4626890              0.1519130             -0.1627100             -0.7590390              0.0000000
    -0.0014350              0.3035190              0.0964060             -0.1826910              0.6295020              0.0000000
    -0.0003000              0.0505150             -0.2563870              0.3998710              1.1637940              0.0000000
     0.0000370             -0.0043930             -0.5874490              0.6854100             -1.0239170              0.0000000
    -0.0000140              0.0018070             -0.3062660              0.0751950             -0.1794770              1.0000000
* D-type functions
   8    4
            50.6542000
            14.7325000
             5.1804600
             2.0195900
             0.7992190
             0.3053160
             0.1104440
             0.0370650
     0.0042520             -0.0043960              0.0057630              0.0000000
     0.0274650             -0.0282630              0.0364360              0.0000000
     0.0992270             -0.1047920              0.1387320              0.0000000
     0.2299670             -0.2343530              0.3008260              0.0000000
     0.3442870             -0.3255090              0.3149790              0.0000000
     0.3736260             -0.0699950             -0.7436330              0.0000000
     0.2680210              0.5949220             -0.2346380              0.0000000
     0.0661680              0.3975880              0.8027730              1.0000000
* F-type functions
   2    2
             0.7126000
             0.1636000
     1.0000000              0.0000000
     0.0000000              1.0000000
* G-type functions
   1    1
             0.4112000
     1.0000000
/Ti.cc-pVTZ-DK..20s16p8d2f1g.7s6p4d2f1g.
For reference to original basis set, see header.
TITANIUM       (20s,16p,8d,2f,1g) -> [7s,6p,4d,2f,1g]
         22.   4
* S-type functions
   20    7
        3014643.0000000
        451432.9000000
        102733.8000000
         29098.1700000
          9492.3300000
          3426.3460000
          1335.8960000
           553.5026000
           240.6925000
           108.7293000
            50.2645700
            22.5800400
            10.7143200
             5.0935460
             2.2441830
             1.0595700
             0.4688490
             0.1061430
             0.0552620
             0.0254650
     0.0001120             -0.0000630              0.0000130             -0.0000030             -0.0000060             -0.0000090              0.0000000
     0.0003320             -0.0001890              0.0000380             -0.0000090             -0.0000170             -0.0000270              0.0000000
     0.0009400             -0.0005350              0.0001090             -0.0000260             -0.0000480             -0.0000750              0.0000000
     0.0025320             -0.0014430              0.0002940             -0.0000700             -0.0001310             -0.0002080              0.0000000
     0.0068790             -0.0039330              0.0008030             -0.0001910             -0.0003460             -0.0005370              0.0000000
     0.0187490             -0.0107960              0.0022200             -0.0005260             -0.0010090             -0.0016170              0.0000000
     0.0492940             -0.0288290              0.0059990             -0.0014240             -0.0025320             -0.0038870              0.0000000
     0.1166940             -0.0706740              0.0151490             -0.0035930             -0.0070420             -0.0114190              0.0000000
     0.2273250             -0.1487780              0.0337330             -0.0080220             -0.0138290             -0.0208780              0.0000000
     0.3105540             -0.2420600              0.0615630             -0.0146460             -0.0302210             -0.0503970              0.0000000
     0.2205840             -0.2347210              0.0694620             -0.0166610             -0.0239810             -0.0320930              0.0000000
     0.0732470              0.0422060             -0.0241550              0.0058890             -0.0071850             -0.0269460              0.0000000
     0.1131540              0.4983350             -0.2789840              0.0693470              0.1758840              0.3275740              0.0000000
     0.1136590              0.4868870             -0.4386710              0.1159210              0.1462460              0.2147230              0.0000000
     0.0193160              0.0879040              0.0909060             -0.0327170              0.0971840              0.1170160              0.0000000
    -0.0004650             -0.0052640              0.7091310             -0.2334140             -1.0017360             -2.4080240              0.0000000
     0.0001590              0.0005520              0.4311640             -0.2869410              0.1999570              2.5936190              0.0000000
    -0.0000590             -0.0006280              0.0258980              0.2839540              2.2181040              0.1447480              0.0000000
     0.0000620              0.0005530             -0.0110070              0.5841130             -1.3423230             -2.5253120              0.0000000
    -0.0000080             -0.0001180              0.0038890              0.2949620             -0.6139360              1.9476800              1.0000000
* P-type functions
   16    6
         11912.0300000
          2819.9470000
           915.9479000
           350.3842000
           148.4825000
            67.5394400
            32.3033200
            15.9278600
             8.0380350
             4.0939160
             2.0223900
             0.9761020
             0.4595950
             0.1771950
             0.0734420
             0.0293340
     0.0001040             -0.0000350              0.0000080              0.0000100              0.0000210              0.0000000
     0.0005330             -0.0001790              0.0000430              0.0000540              0.0001010              0.0000000
     0.0025880             -0.0008700              0.0002090              0.0002610              0.0005360              0.0000000
     0.0104700             -0.0035410              0.0008480              0.0010710              0.0019840              0.0000000
     0.0354710             -0.0121500              0.0029250              0.0036390              0.0075290              0.0000000
     0.0981640             -0.0344710              0.0082760              0.0104610              0.0191510              0.0000000
     0.2106310             -0.0765940              0.0185500              0.0229850              0.0486770              0.0000000
     0.3301970             -0.1256220              0.0303400              0.0386720              0.0671790              0.0000000
     0.3305000             -0.1320480              0.0327150              0.0394990              0.1039430              0.0000000
     0.1571860              0.0193960             -0.0087200             -0.0068990             -0.0555620              0.0000000
     0.0219670              0.3164550             -0.0886360             -0.1146250             -0.1916650              0.0000000
    -0.0017610              0.4614890             -0.1491650             -0.1708870             -0.6969070              0.0000000
    -0.0014300              0.2980100             -0.0932320             -0.1652610              0.5747490              0.0000000
    -0.0002900              0.0495170              0.2507080              0.4058580              1.1704990              0.0000000
     0.0000340             -0.0041080              0.5861800              0.6742340             -1.0063770              0.0000000
    -0.0000130              0.0016930              0.3140930              0.0782790             -0.2004620              1.0000000
* D-type functions
   8    4
            64.3402000
            18.8418000
             6.7198300
             2.6561300
             1.0736800
             0.4205570
             0.1548170
             0.0514900
     0.0038830             -0.0039790              0.0063860              0.0000000
     0.0262040             -0.0267640              0.0433010              0.0000000
     0.0968870             -0.1018940              0.1702500              0.0000000
     0.2316310             -0.2371110              0.3719460              0.0000000
     0.3519720             -0.3132860              0.2303500              0.0000000
     0.3725630             -0.0465630             -0.7820270              0.0000000
     0.2505630              0.5840720             -0.1235850              0.0000000
     0.0600620              0.4153220              0.7220380              1.0000000
* F-type functions
   2    2
             1.2274000
             0.2788000
     1.0000000              0.0000000
     0.0000000              1.0000000
* G-type functions
   1    1
             0.7092000
     1.0000000
/V.cc-pVTZ-DK..20s16p8d2f1g.7s6p4d2f1g.
For reference to original basis set, see header.
VANADIUM       (20s,16p,8d,2f,1g) -> [7s,6p,4d,2f,1g]
         23.   4
* S-type functions
   20    7
        3321857.0000000
        497435.6000000
        113202.7000000
         32063.3300000
         10459.6200000
          3775.5060000
          1472.0400000
           609.9331000
           265.2634000
           119.8607000
            55.4489100
            24.9837200
            11.8805600
             5.6603110
             2.4957030
             1.1778660
             0.5200440
             0.1159650
             0.0589380
             0.0269460
     0.0001180             -0.0000660              0.0000140             -0.0000030             -0.0000060             -0.0000100              0.0000000
     0.0003490             -0.0001940              0.0000410             -0.0000100             -0.0000180             -0.0000290              0.0000000
     0.0009820             -0.0005450              0.0001150             -0.0000270             -0.0000510             -0.0000810              0.0000000
     0.0026180             -0.0014570              0.0003080             -0.0000720             -0.0001410             -0.0002240              0.0000000
     0.0070320             -0.0039270              0.0008330             -0.0001940             -0.0003660             -0.0005750              0.0000000
     0.0189660             -0.0106680              0.0022780             -0.0005300             -0.0010610             -0.0017020              0.0000000
     0.0495440             -0.0283160              0.0061170             -0.0014250             -0.0026350             -0.0040970              0.0000000
     0.1170070             -0.0692880              0.0154080             -0.0035890             -0.0073430             -0.0118930              0.0000000
     0.2280590             -0.1461110              0.0343010             -0.0080030             -0.0143270             -0.0220220              0.0000000
     0.3128050             -0.2389450              0.0627220             -0.0146610             -0.0316410             -0.0524010              0.0000000
     0.2243300             -0.2339170              0.0710470             -0.0167040             -0.0247500             -0.0349980              0.0000000
     0.0735890              0.0421070             -0.0241190              0.0057060             -0.0086380             -0.0258510              0.0000000
     0.1075150              0.5024910             -0.2872100              0.0703560              0.1872210              0.3416980              0.0000000
     0.1073700              0.4878150             -0.4426090              0.1145620              0.1479670              0.2399620              0.0000000
     0.0180480              0.0873120              0.1068750             -0.0359500              0.0933070              0.0310030              0.0000000
    -0.0004330             -0.0053530              0.7133290             -0.2344200             -1.0567540             -2.3835830              0.0000000
     0.0001240              0.0004350              0.4194430             -0.2726820              0.2916520              2.6992870              0.0000000
    -0.0000460             -0.0005700              0.0238310              0.2965280              2.1339990             -0.2788310              0.0000000
     0.0000590              0.0005410             -0.0098830              0.5772100             -1.3543780             -1.9836530              0.0000000
    -0.0000030             -0.0000970              0.0036330              0.2866900             -0.5520240              1.7452720              1.0000000
* P-type functions
   16    6
         13273.2000000
          3142.1260000
          1020.5880000
           390.4407000
           165.5043000
            75.3200600
            36.0550300
            17.8043600
             9.0029290
             4.5945440
             2.2767600
             1.1011780
             0.5186380
             0.2005740
             0.0812170
             0.0317330
     0.0001080             -0.0000370              0.0000090              0.0000110              0.0000230              0.0000000
     0.0005390             -0.0001840              0.0000440              0.0000560              0.0001070              0.0000000
     0.0025820             -0.0008830              0.0002140              0.0002660              0.0005570              0.0000000
     0.0103900             -0.0035760              0.0008620              0.0010870              0.0020550              0.0000000
     0.0351890             -0.0122640              0.0029720              0.0036880              0.0077880              0.0000000
     0.0975890             -0.0348910              0.0084410              0.0106400              0.0198910              0.0000000
     0.2102360             -0.0778890              0.0189950              0.0234680              0.0507500              0.0000000
     0.3306940             -0.1284150              0.0312890              0.0397630              0.0705330              0.0000000
     0.3306980             -0.1338960              0.0333380              0.0401880              0.1081080              0.0000000
     0.1567000              0.0231590             -0.0100750             -0.0080990             -0.0606770              0.0000000
     0.0218570              0.3220750             -0.0925620             -0.1183280             -0.2162910              0.0000000
    -0.0017680              0.4598860             -0.1488610             -0.1730030             -0.6786280              0.0000000
    -0.0014570              0.2931220             -0.0823020             -0.1539630              0.6035630              0.0000000
    -0.0002830              0.0484450              0.2504590              0.4118200              1.1148540              0.0000000
     0.0000310             -0.0037030              0.5799250              0.6696520             -0.9880720              0.0000000
    -0.0000120              0.0015520              0.3218540              0.0765210             -0.1855030              1.0000000
* D-type functions
   8    4
            78.2841000
            23.0120000
             8.2901600
             3.3079100
             1.3555500
             0.5392580
             0.2012550
             0.0671460
     0.0035870             -0.0038180              0.0059800              0.0000000
     0.0249740             -0.0265310              0.0417790              0.0000000
     0.0940290             -0.1030470              0.1689470              0.0000000
     0.2290420             -0.2466900              0.3831330              0.0000000
     0.3518030             -0.3129250              0.2118890              0.0000000
     0.3708890             -0.0275810             -0.7715530              0.0000000
     0.2485580              0.5660110             -0.1298600              0.0000000
     0.0629030              0.4242030              0.7325050              1.0000000
* F-type functions
   2    2
             1.7488000
             0.4057000
     1.0000000              0.0000000
     0.0000000              1.0000000
* G-type functions
   1    1
             1.1127000
     1.0000000
/Cr.cc-pVTZ-DK..20s16p8d2f1g.7s6p4d2f1g.
For reference to original basis set, see header.
CHROMIUM       (20s,16p,8d,2f,1g) -> [7s,6p,4d,2f,1g]
         24.   4
* S-type functions
   20    7
        6177194.0000000
        924929.5000000
        210486.5000000
         59620.0500000
         19450.7600000
          7022.0560000
          2738.7630000
          1135.8140000
           495.0923000
           224.7487000
           105.3836000
            50.1935900
            22.2495700
            10.9826500
             5.3836650
             2.3436850
             1.1052020
             0.4878480
             0.0895990
             0.0334230
     0.0000840             -0.0000460              0.0000100             -0.0000020              0.0000040             -0.0000070              0.0000000
     0.0002410             -0.0001340              0.0000290             -0.0000070              0.0000130             -0.0000210              0.0000000
     0.0006580             -0.0003640              0.0000780             -0.0000180              0.0000360             -0.0000580              0.0000000
     0.0016730             -0.0009270              0.0002000             -0.0000450              0.0000880             -0.0001450              0.0000000
     0.0042480             -0.0023610              0.0005110             -0.0001170              0.0002390             -0.0003840              0.0000000
     0.0108890             -0.0060760              0.0013170             -0.0002980              0.0005570             -0.0009370              0.0000000
     0.0278590             -0.0157230              0.0034470             -0.0007900              0.0016820             -0.0026480              0.0000000
     0.0678880             -0.0390780              0.0086680             -0.0019570              0.0034900             -0.0060270              0.0000000
     0.1468020             -0.0887110              0.0204950             -0.0047250              0.0105120             -0.0162070              0.0000000
     0.2556230             -0.1701120              0.0417010             -0.0093680              0.0153920             -0.0279550              0.0000000
     0.2984080             -0.2472980              0.0693000             -0.0162500              0.0402770             -0.0593480              0.0000000
     0.1745600             -0.1863810              0.0581890             -0.0125490              0.0073940             -0.0278590              0.0000000
     0.0696900              0.1584390             -0.0761810              0.0155500              0.0140570              0.0170670              0.0000000
     0.1141840              0.5481250             -0.3561380              0.0916910             -0.2936730              0.4205010              0.0000000
     0.0840700              0.3885790             -0.3726510              0.0854260              0.0030100              0.2026980              0.0000000
     0.0099260              0.0492810              0.2838030             -0.0662500             -0.1758500             -0.4517940              0.0000000
    -0.0003160             -0.0043050              0.7149340             -0.2868520              1.5006460             -1.9067910              0.0000000
     0.0000590              0.0001110              0.2908760             -0.1703030             -1.1269400              2.8955150              0.0000000
     0.0000160             -0.0000270              0.0069090              0.6967260             -1.2270880             -2.2377970              0.0000000
     0.0000220              0.0001410              0.0002540              0.4475590              1.4652390              1.4096650              1.0000000
* P-type functions
   16    6
         14454.2000000
          3421.6760000
          1111.3870000
           425.1918000
           180.2623000
            82.0611700
            39.2972600
            19.4195900
             9.8288990
             5.0168100
             2.4870910
             1.1987800
             0.5586950
             0.2093660
             0.0847220
             0.0332780
     0.0001150             -0.0000400              0.0000090              0.0000120              0.0000250              0.0000000
     0.0005600             -0.0001940              0.0000460              0.0000590              0.0001160              0.0000000
     0.0026530             -0.0009220              0.0002190              0.0002770              0.0006020              0.0000000
     0.0106120             -0.0037110              0.0008780              0.0011210              0.0021980              0.0000000
     0.0358670             -0.0127060              0.0030300              0.0038200              0.0083680              0.0000000
     0.0993240             -0.0361210              0.0085680              0.0109400              0.0212190              0.0000000
     0.2135250             -0.0805400              0.0193430              0.0243010              0.0545450              0.0000000
     0.3339970             -0.1323120              0.0315600              0.0405940              0.0746730              0.0000000
     0.3282920             -0.1340350              0.0330560              0.0407730              0.1147010              0.0000000
     0.1505820              0.0347070             -0.0135900             -0.0134400             -0.0783210              0.0000000
     0.0200020              0.3356300             -0.0940090             -0.1211060             -0.2465150              0.0000000
    -0.0015630              0.4612780             -0.1498470             -0.1827370             -0.6773230              0.0000000
    -0.0012910              0.2785730             -0.0657160             -0.1200720              0.7479410              0.0000000
    -0.0002120              0.0412210              0.2711740              0.4449520              0.9845060              0.0000000
     0.0000240             -0.0038000              0.5750590              0.6413430             -1.0295180              0.0000000
    -0.0000090              0.0014650              0.3013730              0.0579260             -0.1109680              1.0000000
* D-type functions
   8    4
            89.4745000
            26.3368000
             9.5342900
             3.8211800
             1.5716900
             0.6264220
             0.2330550
             0.0763030
     0.0036170             -0.0041240              0.0059530              0.0000000
     0.0255390             -0.0290980              0.0422270              0.0000000
     0.0968340             -0.1143160              0.1730970              0.0000000
     0.2351220             -0.2719580              0.3927110              0.0000000
     0.3574460             -0.3162730              0.1544870              0.0000000
     0.3691600              0.0374570             -0.8070190              0.0000000
     0.2380780              0.5894820              0.0009440              0.0000000
     0.0547520              0.3617680              0.7044040              1.0000000
* F-type functions
   2    2
             2.2211000
             0.5231000
     1.0000000              0.0000000
     0.0000000              1.0000000
* G-type functions
   1    1
             1.4199000
     1.0000000
/Mn.cc-pVTZ-DK..20s16p8d2f1g.7s6p4d2f1g.
For reference to original basis set, see header.
MANGANESE       (20s,16p,8d,2f,1g) -> [7s,6p,4d,2f,1g]
         25.   4
* S-type functions
   20    7
        3960805.0000000
        593115.5000000
        134976.8000000
         38230.6700000
         12471.5400000
          4501.7430000
          1755.2120000
           727.3039000
           316.3678000
           143.0098000
            66.2180500
            29.9189600
            14.3031800
             6.8394510
             3.0123740
             1.4188080
             0.6236240
             0.1340980
             0.0655480
             0.0295840
     0.0001350             -0.0000650              0.0000160             -0.0000040             -0.0000070             -0.0000110              0.0000000
     0.0003950             -0.0001890              0.0000460             -0.0000100             -0.0000210             -0.0000340              0.0000000
     0.0010960             -0.0005250              0.0001280             -0.0000290             -0.0000570             -0.0000930              0.0000000
     0.0028710             -0.0013790              0.0003370             -0.0000750             -0.0001530             -0.0002500              0.0000000
     0.0075540             -0.0036420              0.0008910             -0.0001990             -0.0003900             -0.0006340              0.0000000
     0.0199750             -0.0097110              0.0023910             -0.0005330             -0.0011070             -0.0018190              0.0000000
     0.0515080             -0.0254890              0.0063340             -0.0014130             -0.0027160             -0.0043920              0.0000000
     0.1210030             -0.0622590              0.0158660             -0.0035420             -0.0075260             -0.0124300              0.0000000
     0.2360360             -0.1322860              0.0352360             -0.0078710             -0.0146430             -0.0235800              0.0000000
     0.3264820             -0.2204590              0.0645450             -0.0144660             -0.0324340             -0.0543090              0.0000000
     0.2393020             -0.2215130              0.0730570             -0.0164250             -0.0252390             -0.0393500              0.0000000
     0.0718200              0.0493360             -0.0257370              0.0057620             -0.0086680             -0.0205440              0.0000000
     0.0759500              0.5165030             -0.3026850              0.0712660              0.1951750              0.3531150              0.0000000
     0.0750300              0.4900740             -0.4440650              0.1094140              0.1474640              0.2786720              0.0000000
     0.0118360              0.0845860              0.1409020             -0.0428130              0.0703750             -0.1195220              0.0000000
    -0.0003590             -0.0068570              0.7189900             -0.2293830             -1.0667770             -2.2468870              0.0000000
    -0.0000620             -0.0004660              0.3952070             -0.2461200              0.3723110              2.7026690              0.0000000
    -0.0000140             -0.0005260              0.0198510              0.3096530              1.9872070             -0.5973580              0.0000000
     0.0000260              0.0004990             -0.0077830              0.5658570             -1.2893930             -1.4948730              0.0000000
     0.0000000             -0.0000870              0.0031750              0.2782580             -0.5130850              1.5310650              1.0000000
* P-type functions
   16    6
         16205.8600000
          3836.2740000
          1246.0480000
           476.7535000
           202.1895000
            92.0948700
            44.1472000
            21.8546800
            11.0859600
             5.6741080
             2.8231700
             1.3686210
             0.6444310
             0.2483460
             0.0971750
             0.0365650
     0.0001180             -0.0000410             -0.0000090              0.0000130              0.0000270              0.0000000
     0.0005550             -0.0001930             -0.0000440              0.0000600              0.0001220              0.0000000
     0.0025910             -0.0009030             -0.0002080              0.0002790              0.0006140              0.0000000
     0.0102970             -0.0036140             -0.0008320              0.0011270              0.0022650              0.0000000
     0.0348120             -0.0123730             -0.0028570              0.0038180              0.0084770              0.0000000
     0.0968140             -0.0353410             -0.0081640              0.0110610              0.0220190              0.0000000
[...]
   13    5
          7423.8614000
          1759.5166000
           570.2291600
           216.5799700
            90.7342520
            40.3087910
            18.5555020
             8.3965430
             3.7673670
             1.6297010
             0.5682630
             0.2225030
             0.0804050
     0.0009384             -0.0003685              0.0000819              0.0000000              0.0000000
     0.0051335             -0.0020300              0.0004522              0.0000000              0.0000000
     0.0241004             -0.0096103              0.0021404              0.0000000              0.0000000
     0.0867645             -0.0356190              0.0079708              0.0000000              0.0000000
     0.2282785             -0.0976159              0.0219110              0.0000000              0.0000000
     0.3920317             -0.1797007              0.0408193              0.0000000              0.0000000
     0.3489380             -0.1414878              0.0311087              0.0000000              0.0000000
     0.1018376              0.2043706             -0.0566984              0.0000000              0.0000000
     0.0032734              0.5378050             -0.1517685              0.0000000              0.0000000
     0.0017729              0.3787516             -0.1209054              0.0000000              0.0000000
    -0.0004239              0.0452774              0.2136416              1.0000000              0.0000000
     0.0002170             -0.0050337              0.5825264              0.0000000              0.0000000
    -0.0000679              0.0014331              0.3632129              0.0000000              1.0000000
* D-type functions
   9    3
           321.0196100
            96.2493050
            36.6449630
            15.4939650
             6.8911380
             3.0548310
             1.3142410
             0.5134300
             0.1877000
     0.0018205              0.0000000              0.0000000
     0.0144200              0.0000000              0.0000000
     0.0628910              0.0000000              0.0000000
     0.1776357              0.0000000              0.0000000
     0.3195802              0.0000000              0.0000000
     0.3760963              0.0000000              0.0000000
     0.2777705              0.0000000              0.0000000
     0.0837582              1.0000000              0.0000000
     0.0026221              0.0000000              1.0000000
* F-type functions
   1    1
             0.4158000
     1.0000000
/Se.cc-pVTZ-DK..20s13p9d1f.6s5p3d1f.
For reference to original basis set, see header.
SELENIUM       (20s,13p,9d,1f) -> [6s,5p,3d,1f]
         34.   3
* S-type functions
   20    6
        9563600.0000000
        1432100.0000000
        325910.0000000
         92312.0000000
         30116.0000000
         10872.0000000
          4240.1000000
          1758.4000000
           766.5900000
           348.4300000
           164.0300000
            79.1420000
            35.5240000
            17.3050000
             8.3784000
             3.7405000
             1.6890000
             0.5092700
             0.2552000
             0.1065100
     0.0001815             -0.0000583              0.0000230             -0.0000068              0.0000000              0.0000000
     0.0005072             -0.0001632              0.0000644             -0.0000189              0.0000000              0.0000000
     0.0013364             -0.0004309              0.0001702             -0.0000500              0.0000000              0.0000000
     0.0032489             -0.0010506              0.0004151             -0.0001218              0.0000000              0.0000000
     0.0078065             -0.0025433              0.0010061             -0.0002952              0.0000000              0.0000000
     0.0187662             -0.0061693              0.0024421             -0.0007173              0.0000000              0.0000000
     0.0450378             -0.0151746              0.0060313             -0.0017698              0.0000000              0.0000000
     0.1033311             -0.0361885              0.0144378             -0.0042488              0.0000000              0.0000000
     0.2086431             -0.0803593              0.0325228             -0.0095602              0.0000000              0.0000000
     0.3256504             -0.1486631              0.0614561             -0.0182088              0.0000000              0.0000000
     0.3122347             -0.1986525              0.0865575             -0.0256376              0.0000000              0.0000000
     0.1276132             -0.0561847              0.0248076             -0.0077371              0.0000000              0.0000000
     0.0108689              0.4068012             -0.2417734              0.0763568              0.0000000              0.0000000
    -0.0003179              0.5698914             -0.5071051              0.1665265              0.0000000              0.0000000
     0.0001515              0.1812122             -0.0705122              0.0231891              0.0000000              0.0000000
    -0.0001126              0.0082158              0.7124484             -0.3177954              0.0000000              0.0000000
     0.0000193              0.0013742              0.5243640             -0.4107046              0.0000000              0.0000000
    -0.0000110             -0.0002685              0.0343812              0.3011816              1.0000000              0.0000000
     0.0000078              0.0001505             -0.0090846              0.6587538              0.0000000              0.0000000
    -0.0000018             -0.0000472              0.0019073              0.2785622              0.0000000              1.0000000
* P-type functions
   13    5
          8004.3000000
          1896.9000000
           614.7100000
           233.5000000
            97.8560000
            43.5140000
            20.0630000
             9.1127000
             4.1063000
             1.7949000
             0.6243200
             0.2461500
             0.0889170
     0.0009538             -0.0003800              0.0000916              0.0000000              0.0000000
     0.0051209             -0.0020543              0.0004972              0.0000000              0.0000000
     0.0238842             -0.0096649              0.0023319              0.0000000              0.0000000
     0.0858778             -0.0357646              0.0087023              0.0000000              0.0000000
     0.2265220             -0.0983211              0.0239008              0.0000000              0.0000000
     0.3907699             -0.1817616              0.0450259              0.0000000              0.0000000
     0.3503244             -0.1446877              0.0340628              0.0000000              0.0000000
     0.1040171              0.2032703             -0.0608309              0.0000000              0.0000000
     0.0035839              0.5420519             -0.1715980              0.0000000              0.0000000
     0.0017229              0.3761997             -0.1243598              0.0000000              0.0000000
    -0.0004230              0.0426322              0.2693984              1.0000000              0.0000000
     0.0002075             -0.0046557              0.5743533              0.0000000              0.0000000
    -0.0000680              0.0015891              0.3263119              0.0000000              1.0000000
* D-type functions
   9    3
           361.8500000
           108.5500000
            41.4330000
            17.5790000
             7.8627000
             3.5180000
             1.5348000
             0.6081300
             0.2220000
     0.0017093              0.0000000              0.0000000
     0.0136245              0.0000000              0.0000000
     0.0603085              0.0000000              0.0000000
     0.1732739              0.0000000              0.0000000
     0.3182194              0.0000000              0.0000000
     0.3798824              0.0000000              0.0000000
     0.2773016              0.0000000              0.0000000
     0.0791793              1.0000000              0.0000000
     0.0023099              0.0000000              1.0000000
* F-type functions
   1    1
             0.4620000
     1.0000000
/Br.cc-pVTZ-DK..20s13p9d1f.6s5p3d1f.
For reference to original basis set, see header.
BROMINE       (20s,13p,9d,1f) -> [6s,5p,3d,1f]
         35.   3
* S-type functions
   20    6
        10639000.0000000
        1593400.0000000
        362610.0000000
        102700.0000000
         33501.0000000
         12093.0000000
          4715.9000000
          1955.6000000
           852.6100000
           387.6700000
           182.6800000
            88.2450000
            39.2630000
            19.2340000
             9.4057000
             4.1601000
             1.8995000
             0.6047200
             0.3011400
             0.1251500
     0.0001832             -0.0000591              0.0000236             -0.0000072              0.0000000              0.0000000
     0.0005094             -0.0001646              0.0000657             -0.0000202              0.0000000              0.0000000
     0.0013353             -0.0004325              0.0001726             -0.0000530              0.0000000              0.0000000
     0.0032222             -0.0010466              0.0004176             -0.0001284              0.0000000              0.0000000
     0.0076707             -0.0025103              0.0010031             -0.0003083              0.0000000              0.0000000
     0.0182439             -0.0060229              0.0024075             -0.0007407              0.0000000              0.0000000
     0.0433826             -0.0146734              0.0058916             -0.0018109              0.0000000              0.0000000
     0.0991426             -0.0347901              0.0140102             -0.0043190              0.0000000              0.0000000
     0.2010706             -0.0773387              0.0316098             -0.0097329              0.0000000              0.0000000
     0.3191212             -0.1442475              0.0600877             -0.0186483              0.0000000              0.0000000
     0.3179374             -0.1985461              0.0872309             -0.0270679              0.0000000              0.0000000
     0.1406661             -0.0726261              0.0324842             -0.0105140              0.0000000              0.0000000
     0.0138611              0.3809663             -0.2258144              0.0747565              0.0000000              0.0000000
    -0.0008414              0.5761470             -0.5093521              0.1753422              0.0000000              0.0000000
     0.0003982              0.2033629             -0.1106266              0.0399153              0.0000000              0.0000000
    -0.0002226              0.0112299              0.7018218             -0.3301097              0.0000000              0.0000000
     0.0000678              0.0010430              0.5477988             -0.4463003              0.0000000              0.0000000
    -0.0000338             -0.0001708              0.0393571              0.2957042              1.0000000              0.0000000
     0.0000221              0.0000729             -0.0089968              0.6810696              0.0000000              0.0000000
    -0.0000052             -0.0000318              0.0019468              0.2785627              0.0000000              1.0000000
* P-type functions
   13    5
          8676.5000000
          2055.9000000
           666.2300000
           253.1000000
           106.1200000
            47.2420000
            21.8250000
             9.9684000
             4.5171000
             1.9982000
             0.7098800
             0.2814500
             0.1020400
     0.0009606             -0.0003881              0.0001001              0.0000000              0.0000000
     0.0050551             -0.0020557              0.0005330              0.0000000              0.0000000
     0.0234154             -0.0096085              0.0024808              0.0000000              0.0000000
     0.0841414             -0.0355099              0.0092595              0.0000000              0.0000000
     0.2229616             -0.0981287              0.0255286              0.0000000              0.0000000
     0.3880657             -0.1828576              0.0486125              0.0000000              0.0000000
     0.3534548             -0.1498313              0.0376864              0.0000000              0.0000000
     0.1085321              0.1959655             -0.0631036              0.0000000              0.0000000
     0.0042339              0.5433698             -0.1878988              0.0000000              0.0000000
     0.0016954              0.3792448             -0.1319307              0.0000000              0.0000000
    -0.0004284              0.0434121              0.2976662              1.0000000              0.0000000
     0.0001980             -0.0040330              0.5723946              0.0000000              0.0000000
    -0.0000690              0.0017114              0.3063896              0.0000000              1.0000000
* D-type functions
   9    3
           403.8300000
           121.1700000
            46.3450000
            19.7210000
             8.8624000
             3.9962000
             1.7636000
             0.7061900
             0.2639000
     0.0016248              0.0000000              0.0000000
     0.0130068              0.0000000              0.0000000
     0.0582881              0.0000000              0.0000000
     0.1698577              0.0000000              0.0000000
     0.3172628              0.0000000              0.0000000
     0.3831152              0.0000000              0.0000000
     0.2764135              0.0000000              0.0000000
     0.0753432              1.0000000              0.0000000
     0.0020696              0.0000000              1.0000000
* F-type functions
   1    1
             0.5515000
     1.0000000
/Kr.cc-pVTZ-DK..20s13p9d1f.6s5p3d1f.
For reference to original basis set, see header.
KRYPTON       (20s,13p,9d,1f) -> [6s,5p,3d,1f]
         36.   3
* S-type functions
   20    6
        11718113.0000000
        1754604.4000000
        399281.3200000
        113084.5700000
         36885.9250000
         13312.2090000
          5189.9883000
          2151.6597000
           938.0325100
           426.5573200
           201.0666000
            97.0976050
            42.9987240
            21.1770750
            10.4267520
             4.5850080
             2.1176030
             0.7070570
             0.3492250
             0.1448210
     0.0001859             -0.0000603              0.0000243             -0.0000077              0.0000000              0.0000000
     0.0005150             -0.0001671              0.0000673             -0.0000215              0.0000000              0.0000000
     0.0013432             -0.0004370              0.0001760             -0.0000562              0.0000000              0.0000000
     0.0032195             -0.0010504              0.0004231             -0.0001351              0.0000000              0.0000000
     0.0076009             -0.0024984              0.0010080             -0.0003218              0.0000000              0.0000000
     0.0179060             -0.0059366              0.0023954             -0.0007656              0.0000000              0.0000000
     0.0422150             -0.0143354              0.0058120             -0.0018555              0.0000000              0.0000000
     0.0960349             -0.0337901              0.0137326             -0.0043974              0.0000000              0.0000000
     0.1952297             -0.0750934              0.0309845             -0.0099092              0.0000000              0.0000000
     0.3137292             -0.1409097              0.0591639             -0.0190727              0.0000000              0.0000000
     0.3219435             -0.1981955              0.0877957             -0.0283000              0.0000000              0.0000000
     0.1510730             -0.0847245              0.0382821             -0.0128172              0.0000000              0.0000000
     0.0164237              0.3597104             -0.2133820              0.0734597              0.0000000              0.0000000
    -0.0012597              0.5793500             -0.5102973              0.1825952              0.0000000              0.0000000
     0.0005951              0.2222311             -0.1428905              0.0546434              0.0000000              0.0000000
    -0.0003119              0.0139542              0.6921799             -0.3407758              0.0000000              0.0000000
     0.0001107              0.0007200              0.5659483             -0.4771108              0.0000000              0.0000000
    -0.0000538             -0.0000786              0.0439980              0.2906970              1.0000000              0.0000000
     0.0000336             -0.0000005             -0.0086285              0.7003463              0.0000000              0.0000000
    -0.0000079             -0.0000172              0.0019571              0.2793583              0.0000000              1.0000000
* P-type functions
   13    5
          9366.3090000
          2219.5543000
           719.4528800
           273.4644600
           114.7522500
            51.1555690
            23.6826760
            10.8754840
             4.9551310
             2.2172670
             0.8064100
             0.3221540
             0.1176190
     0.0009707             -0.0003975              0.0001077              0.0000000              0.0000000
     0.0050077             -0.0020639              0.0005622              0.0000000              0.0000000
     0.0230161             -0.0095757              0.0025964              0.0000000              0.0000000
     0.0825571             -0.0353013              0.0096746              0.0000000              0.0000000
     0.2195384             -0.0979503              0.0267680              0.0000000              0.0000000
     0.3852410             -0.1838610              0.0514269              0.0000000              0.0000000
     0.3563222             -0.1548402              0.0409347              0.0000000              0.0000000
     0.1130359              0.1887147             -0.0644315              0.0000000              0.0000000
     0.0049219              0.5445253             -0.2011754              0.0000000              0.0000000
     0.0016631              0.3826523             -0.1390848              0.0000000              0.0000000
    -0.0004254              0.0442306              0.3163535              1.0000000              0.0000000
     0.0002046             -0.0044428              0.5725139              0.0000000              0.0000000
    -0.0000621              0.0013002              0.2921857              0.0000000              1.0000000
* D-type functions
   9    3
           446.1613300
           133.9647700
            51.3459070
            21.9169060
             9.8937250
             4.4925270
             2.0022930
             0.8084090
             0.3006000
     0.0015646              0.0000000              0.0000000
     0.0125414              0.0000000              0.0000000
     0.0567199              0.0000000              0.0000000
     0.1670903              0.0000000              0.0000000
     0.3164218              0.0000000              0.0000000
     0.3858120              0.0000000              0.0000000
     0.2753781              0.0000000              0.0000000
     0.0722021              1.0000000              0.0000000
     0.0018966              0.0000000              1.0000000
* F-type functions
   1    1
             0.6622000
     1.0000000
