************************************************************************
* This file is part of OpenMolcas.                                     *
*                                                                      *
* OpenMolcas is free software; you can redistribute it and/or modify   *
* it under the terms of the GNU Lesser General Public License, v. 2.1. *
* OpenMolcas is distributed in the hope that it will be useful, but it *
* is provided "as is" and without any express or implied warranties.   *
* For more details see the full text of the license in the file        *
* LICENSE or in <http://www.gnu.org/licenses/>.                        *
************************************************************************

#Hamiltonian DKH
#Nucleus UNK
#Contraction CCC
#AllElectron AE_

************************************************************************
* This file has been generated from Basis Set Exchange data:           *
*   https://www.basissetexchange.org                                   *
* Version: 0  (Data from the Original Basis Set Exchange)              *
************************************************************************

/H.cc-pVTZ-DK.de_Jong.5s2p1d.3s2p1d.
W.A. de Jong, R.J. Harrison, D.A. Dixon. J. Chem. Phys. 114 (2001) 48. doi:10.1063/1.1329891
HYDROGEN (5s,2p,1d) -> [3s,2p,1d]
     1.0   2
* s-type functions
    5    3
         33.87000000
          5.09500000
          1.15900000
          0.32580000
          0.10270000
  0.0060773000  0.0000000000  0.0000000000
  0.0453176000  0.0000000000  0.0000000000
  0.2028364000  0.0000000000  0.0000000000
  0.5038927000  1.0000000000  0.0000000000
  0.3834137000  0.0000000000  1.0000000000
* p-type functions
    2    2
          1.40700000
          0.38800000
  1.0000000000  0.0000000000
  0.0000000000  1.0000000000
* d-type functions
    1    1
          1.05700000
  1.0000000000

/He.cc-pVTZ-DK.de_Jong.6s2p1d.3s2p1d.
W.A. de Jong, R.J. Harrison, D.A. Dixon. J. Chem. Phys. 114 (2001) 48. doi:10.1063/1.1329891
HELIUM (6s,2p,1d) -> [3s,2p,1d]
     2.0   2
* s-type functions
    6    3
        234.00000000
         35.16000000
          7.98900000
          2.21200000
          0.66690000
          0.20890000
  0.0026127000  0.0000000000  0.0000000000
  0.0195588000  0.0000000000  0.0000000000
  0.0910316000  0.0000000000  0.0000000000
  0.2720643000  0.0000000000  0.0000000000
  0.4780287000  1.0000000000  0.0000000000
  0.3077322000  0.0000000000  1.0000000000
* p-type functions
    2    2
          3.04400000
          0.75800000
  1.0000000000  0.0000000000
  0.0000000000  1.0000000000
* d-type functions
    1    1
          1.96500000
  1.0000000000

/Li.cc-pVTZ-DK.de_Jong.11s5p2d1f.4s3p2d1f.
W.A. de Jong, R.J. Harrison, D.A. Dixon. J. Chem. Phys. 114 (2001) 48. doi:10.1063/1.1329891
LITHIUM (11s,5p,2d,1f) -> [4s,3p,2d,1f]
     3.0   3
* s-type functions
   11    4
       5988.00000000
        898.90000000
        205.90000000
         59.24000000
         19.87000000
          7.40600000
          2.93000000
          1.18900000
          0.47980000
          0.07509000
          0.02832000
  0.0001590000 -0.0000248000  0.0000000000  0.0000000000
  0.0010523000 -0.0001652000  0.0000000000  0.0000000000
  0.0053137000 -0.0008272000  0.0000000000  0.0000000000
  0.0209831000 -0.0033354000  0.0000000000  0.0000000000
  0.0664049000 -0.0105312000  0.0000000000  0.0000000000
  0.1658220000 -0.0281109000  0.0000000000  0.0000000000
  0.3150359000 -0.0559366000  0.0000000000  0.0000000000
  0.3934631000 -0.0992549000  0.0000000000  0.0000000000
  0.1908184000 -0.1121221000  0.0000000000  0.0000000000
  0.0054157000  0.5680041000  1.0000000000  0.0000000000
 -0.0013285000  0.5302521000  0.0000000000  1.0000000000
* p-type functions
    5    3
          3.26600000
          0.65110000
          0.16960000
          0.05578000
          0.02050000
  0.0086331000  0.0000000000  0.0000000000
  0.0475337000  0.0000000000  0.0000000000
  0.2097708000  0.0000000000  0.0000000000
  0.5285213000  1.0000000000  0.0000000000
  0.3827478000  0.0000000000  1.0000000000
* d-type functions
    2    2
          0.18740000
          0.08010000
  1.0000000000  0.0000000000
  0.0000000000  1.0000000000
* f-type functions
    1    1
          0.18290000
  1.0000000000

/Be.cc-pVTZ-DK.de_Jong.11s5p2d1f.4s3p2d1f.
W.A. de Jong, R.J. Harrison, D.A. Dixon. J. Chem. Phys. 114 (2001) 48. doi:10.1063/1.1329891
BERYLLIUM (11s,5p,2d,1f) -> [4s,3p,2d,1f]
     4.0   3
* s-type functions
   11    4
       6863.00000000
       1030.00000000
        234.70000000
         66.56000000
         21.69000000
          7.73400000
          2.91600000
          1.13000000
          0.25770000
          0.11010000
          0.04409000
  0.0002897000 -0.0000529000  0.0000000000  0.0000000000
  0.0018847000 -0.0003433000  0.0000000000  0.0000000000
  0.0095429000 -0.0017537000  0.0000000000  0.0000000000
  0.0380762000 -0.0070364000  0.0000000000  0.0000000000
  0.1200942000 -0.0231606000  0.0000000000  0.0000000000
  0.2822115000 -0.0581609000  0.0000000000  0.0000000000
  0.4273153000 -0.1145859000  0.0000000000  0.0000000000
  0.2661276000 -0.1357835000  0.0000000000  0.0000000000
  0.0182046000  0.2282128000  1.0000000000  0.0000000000
 -0.0072870000  0.5773731000  0.0000000000  0.0000000000
  0.0019071000  0.3177456000  0.0000000000  1.0000000000
* p-type functions
    5    3
          7.43600000
          1.57700000
          0.43520000
          0.14380000
          0.04994000
  0.0107482000  0.0000000000  0.0000000000
  0.0628561000  0.0000000000  0.0000000000
  0.2481982000  0.0000000000  0.0000000000
  0.5236405000  1.0000000000  0.0000000000
  0.3534752000  0.0000000000  1.0000000000
* d-type functions
    2    2
          0.34800000
          0.18030000
  1.0000000000  0.0000000000
  0.0000000000  1.0000000000
* f-type functions
    1    1
          0.32500000
  1.0000000000

/B.cc-pVTZ-DK.de_Jong.10s5p2d1f.4s3p2d1f.
W.A. de Jong, R.J. Harrison, D.A. Dixon. J. Chem. Phys. 114 (2001) 48. doi:10.1063/1.1329891
BORON (10s,5p,2d,1f) -> [4s,3p,2d,1f]
     5.0   3
* s-type functions
   10    4
       5473.00000000
        820.90000000
        186.80000000
         52.83000000
         17.08000000
          5.99900000
          2.20800000
          0.58790000
          0.24150000
          0.08610000
  0.0006618000 -0.0001338000  0.0000000000  0.0000000000
  0.0044078000 -0.0008927000  0.0000000000  0.0000000000
  0.0221381000 -0.0045253000  0.0000000000  0.0000000000
  0.0846659000 -0.0177437000  0.0000000000  0.0000000000
  0.2387201000 -0.0537048000  0.0000000000  0.0000000000
  0.4349692000 -0.1190598000  0.0000000000  0.0000000000
  0.3416948000 -0.1656727000  0.0000000000  0.0000000000
  0.0368060000  0.1204882000  1.0000000000  0.0000000000
 -0.0095262000  0.5959798000  0.0000000000  0.0000000000
  0.0023625000  0.4106891000  0.0000000000  1.0000000000
* p-type functions
    5    3
         12.05000000
          2.61300000
          0.74750000
          0.23850000
          0.07698000
  0.0131399000  0.0000000000  0.0000000000
  0.0799035000  0.0000000000  0.0000000000
  0.2772102000  0.0000000000  0.0000000000
  0.5041951000  1.0000000000  0.0000000000
  0.3538280000  0.0000000000  1.0000000000
* d-type functions
    2    2
          0.66100000
          0.19900000
  1.0000000000  0.0000000000
  0.0000000000  1.0000000000
* f-type functions
    1    1
          0.49000000
  1.0000000000

/C.cc-pVTZ-DK.de_Jong.10s5p2d1f.4s3p2d1f.
W.A. de Jong, R.J. Harrison, D.A. Dixon. J. Chem. Phys. 114 (2001) 48. doi:10.1063/1.1329891
CARBON (10s,5p,2d,1f) -> [4s,3p,2d,1f]
     6.0   3
* s-type functions
   10    4
       8236.00000000
       1235.00000000
        280.80000000
         79.27000000
         25.59000000
          8.99700000
          3.31900000
          0.90590000
          0.36430000
          0.12850000
  0.0006772000 -0.0001445000  0.0000000000  0.0000000000
  0.0042785000 -0.0009156000  0.0000000000  0.0000000000
  0.0213576000 -0.0046031000  0.0000000000  0.0000000000
  0.0821858000 -0.0182284000  0.0000000000  0.0000000000
  0.2350715000 -0.0558690000  0.0000000000  0.0000000000
  0.4342613000 -0.1269889000  0.0000000000  0.0000000000
  0.3457333000 -0.1701050000  0.0000000000  0.0000000000
  0.0392977000  0.1409766000  1.0000000000  0.0000000000
 -0.0089547000  0.5986760000  0.0000000000  0.0000000000
  0.0023774000  0.3948686000  0.0000000000  1.0000000000
* p-type functions
    5    3
         18.71000000
          4.13300000
          1.20000000
          0.38270000
          0.12090000
  0.0140738000  0.0000000000  0.0000000000
  0.0869016000  0.0000000000  0.0000000000
  0.2902016000  0.0000000000  0.0000000000
  0.5009039000  1.0000000000  0.0000000000
  0.3435238000  0.0000000000  1.0000000000
* d-type functions
    2    2
          1.09700000
          0.31800000
  1.0000000000  0.0000000000
  0.0000000000  1.0000000000
* f-type functions
    1    1
          0.76100000
  1.0000000000

/N.cc-pVTZ-DK.de_Jong.10s5p2d1f.4s3p2d1f.
W.A. de Jong, R.J. Harrison, D.A. Dixon. J. Chem. Phys. 114 (2001) 48. doi:10.1063/1.1329891
NITROGEN (10s,5p,2d,1f) -> [4s,3p,2d,1f]
     7.0   3
* s-type functions
   10    4
      11420.00000000
       1712.00000000
        389.30000000
        110.00000000
         35.57000000
         12.54000000
          4.64400000
          1.29300000
          0.51180000
          0.17870000
  0.0007127000 -0.0001573000  0.0000000000  0.0000000000
  0.0042813000 -0.0009485000  0.0000000000  0.0000000000
  0.0211421000 -0.0047127000  0.0000000000  0.0000000000
  0.0811887000 -0.0186658000  0.0000000000  0.0000000000
  0.2334368000 -0.0575021000  0.0000000000  0.0000000000
  0.4333154000 -0.1322177000  0.0000000000  0.0000000000
  0.3469116000 -0.1721464000  0.0000000000  0.0000000000
  0.0411585000  0.1526621000  1.0000000000  0.0000000000
 -0.0084838000  0.5999371000  0.0000000000  0.0000000000
  0.0023779000  0.3867086000  0.0000000000  1.0000000000
* p-type functions
    5    3
         26.63000000
          5.94800000
          1.74200000
          0.55500000
          0.17250000
  0.0147368000  0.0000000000  0.0000000000
  0.0918329000  0.0000000000  0.0000000000
  0.2986885000  0.0000000000  0.0000000000
  0.4983558000  1.0000000000  0.0000000000
  0.3371320000  0.0000000000  1.0000000000
* d-type functions
    2    2
          1.65400000
          0.46900000
  1.0000000000  0.0000000000
  0.0000000000  1.0000000000
* f-type functions
    1    1
          1.09300000
  1.0000000000

/O.cc-pVTZ-DK.de_Jong.10s5p2d1f.4s3p2d1f.
W.A. de Jong, R.J. Harrison, D.A. Dixon. J. Chem. Phys. 114 (2001) 48. doi:10.1063/1.1329891
OXYGEN (10s,5p,2d,1f) -> [4s,3p,2d,1f]
     8.0   3
* s-type functions
   10    4
      15330.00000000
       2299.00000000
        522.40000000
        147.30000000
         47.55000000
         16.76000000
          6.20700000
          1.75200000
          0.68820000
          0.23840000
  0.0007428000 -0.0001688000  0.0000000000  0.0000000000
  0.0042405000 -0.0009679000  0.0000000000  0.0000000000
  0.0207194000 -0.0047549000  0.0000000000  0.0000000000
  0.0797931000 -0.0189126000  0.0000000000  0.0000000000
  0.2311816000 -0.0586914000  0.0000000000  0.0000000000
  0.4328845000 -0.1366626000  0.0000000000  0.0000000000
  0.3495073000 -0.1752353000  0.0000000000  0.0000000000
  0.0425850000  0.1620920000  1.0000000000  0.0000000000
 -0.0081229000  0.6033925000  0.0000000000  0.0000000000
  0.0023725000  0.3777452000  0.0000000000  1.0000000000
* p-type functions
    5    3
         34.46000000
          7.74900000
          2.28000000
          0.71560000
          0.21400000
  0.0160267000  0.0000000000  0.0000000000
  0.0998490000  0.0000000000  0.0000000000
  0.3105086000  0.0000000000  0.0000000000
  0.4908599000  1.0000000000  0.0000000000
  0.3364468000  0.0000000000  1.0000000000
* d-type functions
    2    2
          2.31400000
          0.64500000
  1.0000000000  0.0000000000
  0.0000000000  1.0000000000
* f-type functions
    1    1
          1.42800000
  1.0000000000

/F.cc-pVTZ-DK.de_Jong.10s5p2d1f.4s3p2d1f.
W.A. de Jong, R.J. Harrison, D.A. Dixon. J. Chem. Phys. 114 (2001) 48. doi:10.1063/1.1329891
FLUORINE (10s,5p,2d,1f) -> [4s,3p,2d,1f]
     9.0   3
* s-type functions
   10    4
      19500.00000000
       2923.00000000
        664.50000000
        187.50000000
         60.62000000
         21.42000000
          7.95000000
          2.25700000
          0.88150000
          0.30410000
  0.0007913000 -0.0001835000  0.0000000000  0.0000000000
  0.0043210000 -0.0010071000  0.0000000000  0.0000000000
  0.0208039000 -0.0048719000  0.0000000000  0.0000000000
  0.0797933000 -0.0193323000  0.0000000000  0.0000000000
  0.2310785000 -0.0599582000  0.0000000000  0.0000000000
  0.4325780000 -0.1402744000  0.0000000000  0.0000000000
  0.3489945000 -0.1761052000  0.0000000000  0.0000000000
  0.0430476000  0.1731350000  1.0000000000  0.0000000000
 -0.0078525000  0.6049737000  0.0000000000  0.0000000000
  0.0023733000  0.3682007000  0.0000000000  1.0000000000
* p-type functions
    5    3
         43.88000000
          9.92600000
          2.93000000
          0.91320000
          0.26720000
  0.0168000000  0.0000000000  0.0000000000
  0.1046299000  0.0000000000  0.0000000000
  0.3172873000  0.0000000000  0.0000000000
  0.4871668000  1.0000000000  0.0000000000
  0.3346771000  0.0000000000  1.0000000000
* d-type functions
    2    2
          3.10700000
          0.85500000
  1.0000000000  0.0000000000
  0.0000000000  1.0000000000
* f-type functions
    1    1
          1.91700000
  1.0000000000

/Ne.cc-pVTZ-DK.de_Jong.10s5p2d1f.4s3p2d1f.
W.A. de Jong, R.J. Harrison, D.A. Dixon. J. Chem. Phys. 114 (2001) 48. doi:10.1063/1.1329891
NEON (10s,5p,2d,1f) -> [4s,3p,2d,1f]
    10.0   3
* s-type functions
   10    4
      24350.00000000
       3650.00000000
        829.60000000
        234.00000000
         75.61000000
         26.73000000
          9.92700000
          2.83600000
          1.10200000
          0.37820000
  0.0008358000 -0.0001967000  0.0000000000  0.0000000000
  0.0043745000 -0.0010354000  0.0000000000  0.0000000000
  0.0207423000 -0.0049308000  0.0000000000  0.0000000000
  0.0793936000 -0.0195454000  0.0000000000  0.0000000000
  0.2304832000 -0.0607585000  0.0000000000  0.0000000000
  0.4323621000 -0.1428460000  0.0000000000  0.0000000000
  0.3494274000 -0.1768425000  0.0000000000  0.0000000000
  0.0436752000  0.1792556000  1.0000000000  0.0000000000
 -0.0075967000  0.6057343000  0.0000000000  0.0000000000
  0.0023610000  0.3634608000  0.0000000000  1.0000000000
* p-type functions
    5    3
         54.70000000
         12.43000000
          3.67900000
          1.14300000
          0.33000000
  0.0173278000  0.0000000000  0.0000000000
  0.1078707000  0.0000000000  0.0000000000
  0.3217252000  0.0000000000  0.0000000000
  0.4850163000  1.0000000000  0.0000000000
  0.3326429000  0.0000000000  1.0000000000
* d-type functions
    2    2
          4.01400000
          1.09600000
  1.0000000000  0.0000000000
  0.0000000000  1.0000000000
* f-type functions
    1    1
          2.54400000
  1.0000000000

/Na.cc-pVTZ-DK.de_Jong.16s10p2d1f.5s4p2d1f.
W.A. de Jong, R.J. Harrison, D.A. Dixon. J. Chem. Phys. 114 (2001) 48. doi:10.1063/1.1329891
SODIUM (16s,10p,2d,1f) -> [5s,4p,2d,1f]
    11.0   3
* s-type functions
   16    5
     423000.00000000
      63340.00000000
      14410.00000000
       4077.00000000
       1328.00000000
        478.60000000
        186.20000000
         76.92000000
         33.32000000
         15.00000000
          6.86900000
          2.68300000
          1.10900000
          0.45400000
          0.06015000
          0.02382000
  0.0000890000 -0.0000218000  0.0000033000  0.0000000000  0.0000000000
  0.0003055000 -0.0000749000  0.0000113000  0.0000000000  0.0000000000
  0.0010495000 -0.0002571000  0.0000387000  0.0000000000  0.0000000000
  0.0035692000 -0.0008795000  0.0001320000  0.0000000000  0.0000000000
  0.0118412000 -0.0029209000  0.0004406000  0.0000000000  0.0000000000
  0.0361339000 -0.0091129000  0.0013683000  0.0000000000  0.0000000000
  0.0969663000 -0.0251502000  0.0038100000  0.0000000000  0.0000000000
  0.2144124000 -0.0610296000  0.0092122000  0.0000000000  0.0000000000
  0.3483759000 -0.1167017000  0.0180161000  0.0000000000  0.0000000000
  0.3233780000 -0.1621266000  0.0251437000  0.0000000000  0.0000000000
  0.1120091000 -0.0422846000  0.0072823000  0.0000000000  0.0000000000
  0.0070223000  0.3395466000 -0.0616094000  0.0000000000  0.0000000000
  0.0005966000  0.5607534000 -0.1163041000  0.0000000000  0.0000000000
  0.0002026000  0.2434711000 -0.1576827000  1.0000000000  0.0000000000
 -0.0000050000  0.0040000000  0.6290489000  0.0000000000  0.0000000000
  0.0000017000 -0.0012425000  0.4725690000  0.0000000000  1.0000000000
* p-type functions
   10    4
        243.30000000
         57.39000000
         18.10000000
          6.57500000
          2.52100000
          0.96070000
          0.35120000
          0.09827000
          0.03734000
          0.01500000
  0.0023360000 -0.0002316000  0.0000000000  0.0000000000
  0.0175708000 -0.0017602000  0.0000000000  0.0000000000
  0.0776875000 -0.0077836000  0.0000000000  0.0000000000
  0.2192534000 -0.0225358000  0.0000000000  0.0000000000
  0.3784065000 -0.0384212000  0.0000000000  0.0000000000
  0.3946998000 -0.0450032000  0.0000000000  0.0000000000
  0.1604432000 -0.0191964000  0.0000000000  0.0000000000
  0.0023645000  0.1827235000  0.0000000000  0.0000000000
  0.0019896000  0.5578974000  1.0000000000  0.0000000000
 -0.0007763000  0.3729930000  0.0000000000  1.0000000000
* d-type functions
    2    2
          0.13670000
          0.06360000
  1.0000000000  0.0000000000
  0.0000000000  1.0000000000
* f-type functions
    1    1
          0.13970000
  1.0000000000

/Mg.cc-pVTZ-DK.de_Jong.15s10p2d1f.5s4p2d1f.
W.A. de Jong, R.J. Harrison, D.A. Dixon. J. Chem. Phys. 114 (2001) 48. doi:10.1063/1.1329891
MAGNESIUM (15s,10p,2d,1f) -> [5s,4p,2d,1f]
    12.0   3
* s-type functions
   15    5
     164900.00000000
      24710.00000000
       5628.00000000
       1596.00000000
        521.00000000
        188.00000000
         73.01000000
         29.90000000
         12.54000000
          4.30600000
          1.82600000
          0.74170000
          0.14570000
          0.07612000
          0.03310000
  0.0002422000 -0.0000614000  0.0000118000  0.0000000000  0.0000000000
  0.0009215000 -0.0002342000  0.0000451000  0.0000000000  0.0000000000
  0.0035555000 -0.0009030000  0.0001742000  0.0000000000  0.0000000000
  0.0131266000 -0.0033736000  0.0006501000  0.0000000000  0.0000000000
  0.0438767000 -0.0114009000  0.0022034000  0.0000000000  0.0000000000
  0.1242674000 -0.0341221000  0.0066013000  0.0000000000  0.0000000000
  0.2754606000 -0.0831202000  0.0162441000  0.0000000000  0.0000000000
  0.4008546000 -0.1595571000  0.0316427000  0.0000000000  0.0000000000
  0.2632257000 -0.1513356000  0.0312732000  0.0000000000  0.0000000000
  0.0330029000  0.1935020000 -0.0444516000  0.0000000000  0.0000000000
 -0.0043711000  0.5798608000 -0.1516479000  0.0000000000  0.0000000000
  0.0020420000  0.3696639000 -0.2163940000  0.0000000000  0.0000000000
 -0.0008300000  0.0206517000  0.2630443000  1.0000000000  0.0000000000
  0.0007009000 -0.0115917000  0.5453010000  0.0000000000  0.0000000000
 -0.0001985000  0.0026864000  0.3247820000  0.0000000000  1.0000000000
* p-type functions
   10    4
        316.90000000
         74.86000000
         23.72000000
          8.66900000
          3.36300000
          1.31000000
          0.49110000
          0.23640000
          0.08733000
          0.03237000
  0.0021856000 -0.0003462000  0.0000000000  0.0000000000
  0.0164985000 -0.0026128000  0.0000000000  0.0000000000
  0.0742262000 -0.0119341000  0.0000000000  0.0000000000
  0.2145337000 -0.0349344000  0.0000000000  0.0000000000
  0.3820475000 -0.0637955000  0.0000000000  0.0000000000
  0.3978887000 -0.0700523000  0.0000000000  0.0000000000
  0.1528155000 -0.0382229000  0.0000000000  0.0000000000
 -0.0043175000  0.1775221000  0.0000000000  0.0000000000
  0.0062957000  0.5618127000  1.0000000000  0.0000000000
 -0.0015671000  0.4014641000  0.0000000000  1.0000000000
* d-type functions
    2    2
          0.12600000
          0.29400000
  1.0000000000  0.0000000000
  0.0000000000  1.0000000000
* f-type functions
    1    1
          0.25200000
  1.0000000000

/Al.cc-pVTZ-DK.de_Jong.15s9p2d1f.5s4p2d1f.
W.A. de Jong, R.J. Harrison, D.A. Dixon. J. Chem. Phys. 114 (2001) 48. doi:10.1063/1.1329891
ALUMINIUM (15s,9p,2d,1f) -> [5s,4p,2d,1f]
    13.0   3
* s-type functions
   15    5
     205500.00000000
      30780.00000000
       7006.00000000
       1985.00000000
        649.10000000
        235.00000000
         91.62000000
         37.67000000
         15.91000000
          5.85000000
          2.54200000
          1.05700000
          0.29310000
          0.14550000
          0.05650000
  0.0002486000 -0.0000649000  0.0000150000  0.0000000000  0.0000000000
  0.0009183000 -0.0002401000  0.0000554000  0.0000000000  0.0000000000
  0.0034388000 -0.0009000000  0.0002080000  0.0000000000  0.0000000000
  0.0124309000 -0.0032826000  0.0007579000  0.0000000000  0.0000000000
  0.0411372000 -0.0110170000  0.0025517000  0.0000000000  0.0000000000
  0.1165198000 -0.0327430000  0.0075909000  0.0000000000  0.0000000000
  0.2617217000 -0.0809702000  0.0189792000  0.0000000000  0.0000000000
  0.3953985000 -0.1571116000  0.0373779000  0.0000000000  0.0000000000
  0.2827977000 -0.1667395000  0.0415027000  0.0000000000  0.0000000000
  0.0440595000  0.1299949000 -0.0362454000  0.0000000000  0.0000000000
 -0.0048440000  0.5619410000 -0.1759455000  0.0000000000  0.0000000000
  0.0025850000  0.4337633000 -0.2747958000  0.0000000000  0.0000000000
 -0.0010760000  0.0348981000  0.1121380000  1.0000000000  0.0000000000
  0.0007132000 -0.0111008000  0.6521109000  0.0000000000  0.0000000000
 -0.0001763000  0.0021223000  0.3923719000  0.0000000000  1.0000000000
* p-type functions
    9    4
        444.40000000
        105.10000000
         33.47000000
         12.33000000
          4.86900000
          1.96100000
          0.78340000
          0.18880000
          0.05557000
  0.0017470000 -0.0003076000  0.0000000000  0.0000000000
  0.0133061000 -0.0024646000  0.0000000000  0.0000000000
  0.0616623000 -0.0109375000  0.0000000000  0.0000000000
  0.1882350000 -0.0364711000  0.0000000000  0.0000000000
  0.3604280000 -0.0640394000  0.0000000000  0.0000000000
  0.4080722000 -0.0970652000  0.0000000000  0.0000000000
  0.1884779000  0.0148875000  1.0000000000  0.0000000000
  0.0097994000  0.5027104000  0.0000000000  0.0000000000
 -0.0011582000  0.5986296000  0.0000000000  1.0000000000
* d-type functions
    2    2
          0.10900000
          0.33300000
  1.0000000000  0.0000000000
  0.0000000000  1.0000000000
* f-type functions
    1    1
          0.24400000
  1.0000000000

/Si.cc-pVTZ-DK.de_Jong.15s9p2d1f.5s4p2d1f.
W.A. de Jong, R.J. Harrison, D.A. Dixon. J. Chem. Phys. 114 (2001) 48. doi:10.1063/1.1329891
SILICON (15s,9p,2d,1f) -> [5s,4p,2d,1f]
    14.0   3
* s-type functions
   15    5
     254900.00000000
      38190.00000000
       8690.00000000
       2462.00000000
        804.80000000
        291.30000000
        113.60000000
         46.75000000
         19.82000000
          7.70800000
          3.34000000
          1.40200000
          0.43870000
          0.20700000
          0.07944000
  0.0002529000 -0.0000676000  0.0000173000  0.0000000000  0.0000000000
  0.0009090000 -0.0002434000  0.0000624000  0.0000000000  0.0000000000
  0.0033025000 -0.0008863000  0.0002272000  0.0000000000  0.0000000000
  0.0116759000 -0.0031552000  0.0008085000  0.0000000000  0.0000000000
  0.0383795000 -0.0105363000  0.0027076000  0.0000000000  0.0000000000
  0.1092047000 -0.0312848000  0.0080506000  0.0000000000  0.0000000000
  0.2490127000 -0.0785245000  0.0204261000  0.0000000000  0.0000000000
  0.3899473000 -0.1546506000  0.0408728000  0.0000000000  0.0000000000
  0.2998830000 -0.1786818000  0.0494300000  0.0000000000  0.0000000000
  0.0553498000  0.0834192000 -0.0259952000  0.0000000000  0.0000000000
 -0.0039710000  0.5485415000 -0.1915191000  0.0000000000  0.0000000000
  0.0025494000  0.4767448000 -0.3167253000  0.0000000000  0.0000000000
 -0.0010249000  0.0463236000  0.0989272000  1.0000000000  0.0000000000
  0.0006001000 -0.0103212000  0.6807332000  0.0000000000  0.0000000000
 -0.0001520000  0.0021104000  0.3928083000  0.0000000000  1.0000000000
* p-type functions
    9    4
        481.50000000
        113.90000000
         36.23000000
         13.34000000
          5.25200000
          2.12000000
          0.85610000
          0.25280000
          0.07889000
  0.0020745000 -0.0004381000  0.0000000000  0.0000000000
  0.0156644000 -0.0034247000  0.0000000000  0.0000000000
  0.0719518000 -0.0154023000  0.0000000000  0.0000000000
  0.2134897000 -0.0489931000  0.0000000000  0.0000000000
  0.3902729000 -0.0854192000  0.0000000000  0.0000000000
  0.3932155000 -0.1119097000  0.0000000000  0.0000000000
  0.1323843000  0.0620526000  1.0000000000  0.0000000000
  0.0039858000  0.5513707000  0.0000000000  0.0000000000
  0.0003251000  0.5239086000  0.0000000000  1.0000000000
* d-type functions
    2    2
          0.15900000
          0.48100000
  1.0000000000  0.0000000000
  0.0000000000  1.0000000000
* f-type functions
    1    1
          0.33600000
  1.0000000000

/P.cc-pVTZ-DK.de_Jong.15s9p2d1f.5s4p2d1f.
W.A. de Jong, R.J. Harrison, D.A. Dixon. J. Chem. Phys. 114 (2001) 48. doi:10.1063/1.1329891
PHOSPHORUS (15s,9p,2d,1f) -> [5s,4p,2d,1f]
    15.0   3
* s-type functions
   15    5
     312400.00000000
      46800.00000000
      10650.00000000
       3018.00000000
        986.80000000
        357.40000000
        139.60000000
         57.63000000
         24.60000000
         10.12000000
          4.28300000
          1.80500000
          0.61580000
          0.27820000
          0.10550000
  0.0002571000 -0.0000702000 -0.0000193000  0.0000000000  0.0000000000
  0.0009020000 -0.0002465000 -0.0000677000  0.0000000000  0.0000000000
  0.0031853000 -0.0008732000 -0.0002401000  0.0000000000  0.0000000000
  0.0110055000 -0.0030327000 -0.0008334000  0.0000000000  0.0000000000
  0.0358359000 -0.0100473000 -0.0027699000  0.0000000000  0.0000000000
  0.1021861000 -0.0297436000 -0.0082076000  0.0000000000  0.0000000000
  0.2357207000 -0.0754666000 -0.0210652000  0.0000000000  0.0000000000
  0.3815204000 -0.1504688000 -0.0426310000  0.0000000000  0.0000000000
  0.3156027000 -0.1878391000 -0.0558250000  0.0000000000  0.0000000000
  0.0699621000  0.0403987000  0.0140284000  0.0000000000  0.0000000000
 -0.0017854000  0.5308169000  0.1981170000  0.0000000000  0.0000000000
  0.0021312000  0.5151652000  0.3517465000  0.0000000000  0.0000000000
 -0.0008219000  0.0590524000 -0.0789700000  1.0000000000  0.0000000000
  0.0004255000 -0.0089109000 -0.7008474000  0.0000000000  0.0000000000
 -0.0001125000  0.0020179000 -0.4011858000  0.0000000000  1.0000000000
* p-type functions
    9    4
        504.90000000
        119.40000000
         37.96000000
         13.95000000
          5.45700000
          2.17700000
          0.80100000
          0.28770000
          0.09714000
  0.0025366000 -0.0006028000  0.0000000000  0.0000000000
  0.0189426000 -0.0045552000  0.0000000000  0.0000000000
  0.0856706000 -0.0208047000  0.0000000000  0.0000000000
  0.2451121000 -0.0618635000  0.0000000000  0.0000000000
  0.4225698000 -0.1088145000  0.0000000000  0.0000000000
  0.3677769000 -0.1052149000  0.0000000000  0.0000000000
  0.0771283000  0.1537547000  1.0000000000  0.0000000000
 -0.0037587000  0.5764654000  0.0000000000  0.0000000000
  0.0015924000  0.4227272000  0.0000000000  1.0000000000
* d-type functions
    2    2
          0.21600000
          0.65200000
  1.0000000000  0.0000000000
  0.0000000000  1.0000000000
* f-type functions
    1    1
          0.45200000
  1.0000000000

/S.cc-pVTZ-DK.de_Jong.15s9p2d1f.5s4p2d1f.
W.A. de Jong, R.J. Harrison, D.A. Dixon. J. Chem. Phys. 114 (2001) 48. doi:10.1063/1.1329891
SULFUR (15s,9p,2d,1f) -> [5s,4p,2d,1f]
    16.0   3
* s-type functions
   15    5
     374100.00000000
      56050.00000000
      12760.00000000
       3615.00000000
       1183.00000000
        428.80000000
        167.80000000
         69.47000000
         29.84000000
         12.72000000
          5.24400000
          2.21900000
          0.77670000
          0.34900000
          0.13220000
  0.0002638000 -0.0000733000  0.0000213000  0.0000000000  0.0000000000
  0.0009062000 -0.0002521000  0.0000732000  0.0000000000  0.0000000000
  0.0031247000 -0.0008725000  0.0002535000  0.0000000000  0.0000000000
  0.0105603000 -0.0029604000  0.0008599000  0.0000000000  0.0000000000
  0.0340035000 -0.0097096000  0.0028283000  0.0000000000  0.0000000000
  0.0969219000 -0.0286229000  0.0083497000  0.0000000000  0.0000000000
  0.2252582000 -0.0731204000  0.0215638000  0.0000000000  0.0000000000
  0.3735512000 -0.1470961000  0.0440714000  0.0000000000  0.0000000000
  0.3262878000 -0.1935729000  0.0607406000  0.0000000000  0.0000000000
  0.0836129000  0.0128266000 -0.0051710000  0.0000000000  0.0000000000
  0.0004429000  0.5194749000 -0.2066834000  0.0000000000  0.0000000000
  0.0016215000  0.5375512000 -0.3796525000  0.0000000000  0.0000000000
 -0.0006113000  0.0670265000  0.0885035000  1.0000000000  0.0000000000
  0.0002957000 -0.0088273000  0.7139336000  0.0000000000  0.0000000000
 -0.0000827000  0.0021766000  0.3896798000  0.0000000000  1.0000000000
* p-type functions
    9    4
        574.40000000
        135.80000000
         43.19000000
         15.87000000
          6.20800000
          2.48300000
          0.86880000
          0.32290000
          0.10980000
  0.0026583000 -0.0006804000  0.0000000000  0.0000000000
  0.0197601000 -0.0050630000  0.0000000000  0.0000000000
  0.0893840000 -0.0234889000  0.0000000000  0.0000000000
  0.2552538000 -0.0686526000  0.0000000000  0.0000000000
  0.4337250000 -0.1237698000  0.0000000000  0.0000000000
  0.3541224000 -0.0963932000  0.0000000000  0.0000000000
  0.0617460000  0.2285739000  1.0000000000  0.0000000000
 -0.0050047000  0.5688332000  0.0000000000  0.0000000000
  0.0020933000  0.3665018000  0.0000000000  1.0000000000
* d-type functions
    2    2
          0.26900000
          0.81900000
  1.0000000000  0.0000000000
  0.0000000000  1.0000000000
* f-type functions
    1    1
          0.55700000
  1.0000000000

/Cl.cc-pVTZ-DK.de_Jong.15s9p2d1f.5s4p2d1f.
W.A. de Jong, R.J. Harrison, D.A. Dixon. J. Chem. Phys. 114 (2001) 48. doi:10.1063/1.1329891
CHLORINE (15s,9p,2d,1f) -> [5s,4p,2d,1f]
    17.0   3
* s-type functions
   15    5
     456100.00000000
      68330.00000000
      15550.00000000
       4405.00000000
       1439.00000000
        520.40000000
        203.10000000
         83.96000000
         36.20000000
         15.83000000
          6.33400000
          2.69400000
          0.97680000
          0.43130000
          0.16250000
  0.0002645000 -0.0000747000  0.0000226000  0.0000000000  0.0000000000
  0.0008905000 -0.0002515000  0.0000761000  0.0000000000  0.0000000000
  0.0029934000 -0.0008492000  0.0002572000  0.0000000000  0.0000000000
  0.0098871000 -0.0028128000  0.0008515000  0.0000000000  0.0000000000
  0.0315606000 -0.0091519000  0.0027786000  0.0000000000  0.0000000000
  0.0903711000 -0.0269903000  0.0082052000  0.0000000000  0.0000000000
  0.2134406000 -0.0699330000  0.0214933000  0.0000000000  0.0000000000
  0.3646772000 -0.1426906000  0.0445276000  0.0000000000  0.0000000000
  0.3377387000 -0.1978853000  0.0646680000  0.0000000000  0.0000000000
  0.1006810000 -0.0143283000  0.0041911000  0.0000000000  0.0000000000
  0.0030732000  0.5036507000 -0.2092752000  0.0000000000  0.0000000000
  0.0010373000  0.5584234000 -0.4033247000  0.0000000000  0.0000000000
 -0.0003695000  0.0768656000  0.0827071000  1.0000000000  0.0000000000
  0.0001520000 -0.0080500000  0.7256082000  0.0000000000  0.0000000000
 -0.0000502000  0.0022404000  0.3896193000  0.0000000000  1.0000000000
* p-type functions
    9    4
        663.30000000
        156.80000000
         49.98000000
         18.42000000
          7.24000000
          2.92200000
          1.02200000
          0.38180000
          0.13010000
  0.0026741000 -0.0007253000  0.0000000000  0.0000000000
  0.0197715000 -0.0053474000  0.0000000000  0.0000000000
  0.0894991000 -0.0249761000  0.0000000000  0.0000000000
  0.2567502000 -0.0730005000  0.0000000000  0.0000000000
  0.4366374000 -0.1338923000  0.0000000000  0.0000000000
  0.3493206000 -0.0940334000  0.0000000000  0.0000000000
  0.0583589000  0.2627700000  1.0000000000  0.0000000000
 -0.0045545000  0.5640464000  0.0000000000  0.0000000000
  0.0022637000  0.3413419000  0.0000000000  1.0000000000
* d-type functions
    2    2
          1.04600000
          0.34400000
  1.0000000000  0.0000000000
  0.0000000000  1.0000000000
* f-type functions
    1    1
          0.70600000
  1.0000000000

/Ar.cc-pVTZ-DK.de_Jong.15s9p2d1f.5s4p2d1f.
W.A. de Jong, R.J. Harrison, D.A. Dixon. J. Chem. Phys. 114 (2001) 48. doi:10.1063/1.1329891
ARGON (15s,9p,2d,1f) -> [5s,4p,2d,1f]
    18.0   3
* s-type functions
   15    5
     545000.00000000
      81640.00000000
      18580.00000000
       5261.00000000
       1717.00000000
        619.90000000
        241.60000000
         99.79000000
         43.15000000
         19.14000000
          7.48800000
          3.20500000
          1.19600000
          0.52040000
          0.19540000
  0.0002676000 -0.0000766000  0.0000239000  0.0000000000  0.0000000000
  0.0008851000 -0.0002534000  0.0000792000  0.0000000000  0.0000000000
  0.0029115000 -0.0008375000  0.0002620000  0.0000000000  0.0000000000
  0.0094107000 -0.0027127000  0.0008483000  0.0000000000  0.0000000000
  0.0297252000 -0.0087370000  0.0027402000  0.0000000000  0.0000000000
  0.0852189000 -0.0257215000  0.0080774000  0.0000000000  0.0000000000
  0.2035465000 -0.0672613000  0.0213514000  0.0000000000  0.0000000000
  0.3562637000 -0.1389310000  0.0447653000  0.0000000000  0.0000000000
  0.3461000000 -0.2003327000  0.0675613000  0.0000000000  0.0000000000
  0.1164162000 -0.0353876000  0.0119876000  0.0000000000  0.0000000000
  0.0055038000  0.4896428000 -0.2109174000  0.0000000000  0.0000000000
  0.0004726000  0.5732040000 -0.4221521000  0.0000000000  0.0000000000
 -0.0001435000  0.0853490000  0.0782418000  1.0000000000  0.0000000000
  0.0000270000 -0.0070177000  0.7337362000  0.0000000000  0.0000000000
 -0.0000223000  0.0022471000  0.3904707000  0.0000000000  1.0000000000
* p-type functions
    9    4
        761.80000000
        180.20000000
         57.50000000
         21.24000000
          8.38800000
          3.41600000
          1.20600000
          0.45230000
          0.15450000
  0.0026746000 -0.0007530000  0.0000000000  0.0000000000
  0.0196563000 -0.0055091000  0.0000000000  0.0000000000
  0.0892268000 -0.0258919000  0.0000000000  0.0000000000
  0.2572532000 -0.0759587000  0.0000000000  0.0000000000
  0.4383940000 -0.1409826000  0.0000000000  0.0000000000
  0.3463553000 -0.0923338000  0.0000000000  0.0000000000
  0.0564312000  0.2834898000  1.0000000000  0.0000000000
 -0.0052053000  0.5617501000  0.0000000000  0.0000000000
  0.0016351000  0.3250410000  0.0000000000  1.0000000000
* d-type functions
    2    2
          0.41000000
          1.25400000
  1.0000000000  0.0000000000
  0.0000000000  1.0000000000
* f-type functions
    1    1
          0.89000000
  1.0000000000

/Sc.cc-pVTZ-DK.Balabanov.20s16p8d2f1g.7s6p4d2f1g.
N.B. Balabanov, K.A. Peterson. J. Chem. Phys. 123 (2005) 064107. doi:10.1063/1.1998907
SCANDIUM (20s,16p,8d,2f,1g) -> [7s,6p,4d,2f,1g]
    21.0   4
* s-type functions
   20    7
    2715278.00000000
     406598.40000000
      92530.04000000
      26207.92000000
       8549.42900000
       3085.97500000
       1203.17200000
        498.48690000
        216.73600000
         97.87476000
         45.20433000
         20.21187000
          9.57475100
          4.54034600
          1.99568700
          0.94221500
          0.41784500
          0.09576100
          0.05135100
          0.02387800
  0.0001060000 -0.0000610000  0.0000120000 -0.0000030000 -0.0000050000 -0.0000080000  0.0000000000
  0.0003170000 -0.0001820000  0.0000360000 -0.0000090000 -0.0000150000 -0.0000240000  0.0000000000
  0.0009050000 -0.0005200000  0.0001020000 -0.0000250000 -0.0000430000 -0.0000670000  0.0000000000
  0.0024640000 -0.0014170000  0.0002800000 -0.0000680000 -0.0001190000 -0.0001900000  0.0000000000
  0.0067800000 -0.0039120000  0.0007740000 -0.0001870000 -0.0003170000 -0.0004920000  0.0000000000
  0.0186790000 -0.0108530000  0.0021630000 -0.0005230000 -0.0009330000 -0.0015120000  0.0000000000
  0.0494180000 -0.0291550000  0.0058830000 -0.0014240000 -0.0023690000 -0.0036160000  0.0000000000
  0.1172100000 -0.0716000000  0.0148870000 -0.0035970000 -0.0065510000 -0.0107900000  0.0000000000
  0.2280410000 -0.1504450000  0.0331320000 -0.0080330000 -0.0129980000 -0.0193510000  0.0000000000
  0.3098720000 -0.2435420000  0.0602850000 -0.0145980000 -0.0278890000 -0.0476760000  0.0000000000
  0.2175500000 -0.2334530000  0.0674590000 -0.0165140000 -0.0226520000 -0.0281580000  0.0000000000
  0.0724860000  0.0449970000 -0.0250150000  0.0062890000 -0.0046730000 -0.0279470000  0.0000000000
  0.1159500000  0.4960340000 -0.2708040000  0.0682630000  0.1586420000  0.3104550000  0.0000000000
  0.1166380000  0.4848560000 -0.4320030000  0.1165590000  0.1412640000  0.1769890000  0.0000000000
  0.0198230000  0.0875670000  0.0764930000 -0.0299490000  0.0934350000  0.2158550000  0.0000000000
 -0.0004880000 -0.0052830000  0.7030970000 -0.2308390000 -0.8973280000 -2.3880850000  0.0000000000
  0.0001830000  0.0006420000  0.4425890000 -0.3023230000  0.0597060000  2.3878380000  0.0000000000
 -0.0000700000 -0.0006970000  0.0281380000  0.2699030000  2.3097260000  0.8272680000  0.0000000000
  0.0000630000  0.0005790000 -0.0122190000  0.5919260000 -1.2862210000 -3.3417860000  0.0000000000
 -0.0000130000 -0.0001410000  0.0042310000  0.3036850000 -0.7165160000  2.2216750000  1.0000000000
* p-type functions
   16    6
      10592.19000000
       2507.53300000
        814.45710000
        311.51950000
        131.96170000
         59.98718000
         28.66250000
         14.10851000
          7.10370600
          3.60920000
          1.77607000
          0.85476000
          0.40223900
          0.15468000
          0.06488800
          0.02630100
  0.0001010000 -0.0000330000 -0.0000080000  0.0000100000  0.0000200000  0.0000000000
  0.0005310000 -0.0001740000 -0.0000420000  0.0000520000  0.0000990000  0.0000000000
  0.0026120000 -0.0008600000 -0.0002100000  0.0002530000  0.0005400000  0.0000000000
  0.0106240000 -0.0035150000 -0.0008550000  0.0010510000  0.0019760000  0.0000000000
  0.0359750000 -0.0120540000 -0.0029520000  0.0035550000  0.0076190000  0.0000000000
  0.0992420000 -0.0340690000 -0.0083120000  0.0102180000  0.0189350000  0.0000000000
  0.2117340000 -0.0752130000 -0.0185310000  0.0222040000  0.0488650000  0.0000000000
  0.3300720000 -0.1224250000 -0.0300330000  0.0372860000  0.0648610000  0.0000000000
  0.3297560000 -0.1293380000 -0.0326410000  0.0378240000  0.1074880000  0.0000000000
  0.1568380000  0.0162740000  0.0083480000 -0.0049720000 -0.0607580000  0.0000000000
  0.0218050000  0.3101820000  0.0879920000 -0.1112850000 -0.1669220000  0.0000000000
 -0.0017970000  0.4626890000  0.1519130000 -0.1627100000 -0.7590390000  0.0000000000
 -0.0014350000  0.3035190000  0.0964060000 -0.1826910000  0.6295020000  0.0000000000
 -0.0003000000  0.0505150000 -0.2563870000  0.3998710000  1.1637940000  0.0000000000
  0.0000370000 -0.0043930000 -0.5874490000  0.6854100000 -1.0239170000  0.0000000000
 -0.0000140000  0.0018070000 -0.3062660000  0.0751950000 -0.1794770000  1.0000000000
* d-type functions
    8    4
         50.65420000
         14.73250000
          5.18046000
          2.01959000
          0.79921900
          0.30531600
          0.11044400
          0.03706500
  0.0042520000 -0.0043960000  0.0057630000  0.0000000000
  0.0274650000 -0.0282630000  0.0364360000  0.0000000000
  0.0992270000 -0.1047920000  0.1387320000  0.0000000000
  0.2299670000 -0.2343530000  0.3008260000  0.0000000000
  0.3442870000 -0.3255090000  0.3149790000  0.0000000000
  0.3736260000 -0.0699950000 -0.7436330000  0.0000000000
  0.2680210000  0.5949220000 -0.2346380000  0.0000000000
  0.0661680000  0.3975880000  0.8027730000  1.0000000000
* f-type functions
    2    2
          0.71260000
          0.16360000
  1.0000000000  0.0000000000
  0.0000000000  1.0000000000
* g-type functions
    1    1
          0.41120000
  1.0000000000

/Ti.cc-pVTZ-DK.Balabanov.20s16p8d2f1g.7s6p4d2f1g.
N.B. Balabanov, K.A. Peterson. J. Chem. Phys. 123 (2005) 064107. doi:10.1063/1.1998907
TITANIUM (20s,16p,8d,2f,1g) -> [7s,6p,4d,2f,1g]
    22.0   4
* s-type functions
   20    7
    3014643.00000000
     451432.90000000
     102733.80000000
      29098.17000000
       9492.33000000
       3426.34600000
       1335.89600000
        553.50260000
        240.69250000
        108.72930000
         50.26457000
         22.58004000
         10.71432000
          5.09354600
          2.24418300
          1.05957000
          0.46884900
          0.10614300
          0.05526200
          0.02546500
  0.0001120000 -0.0000630000  0.0000130000 -0.0000030000 -0.0000060000 -0.0000090000  0.0000000000
  0.0003320000 -0.0001890000  0.0000380000 -0.0000090000 -0.0000170000 -0.0000270000  0.0000000000
  0.0009400000 -0.0005350000  0.0001090000 -0.0000260000 -0.0000480000 -0.0000750000  0.0000000000
  0.0025320000 -0.0014430000  0.0002940000 -0.0000700000 -0.0001310000 -0.0002080000  0.0000000000
  0.0068790000 -0.0039330000  0.0008030000 -0.0001910000 -0.0003460000 -0.0005370000  0.0000000000
  0.0187490000 -0.0107960000  0.0022200000 -0.0005260000 -0.0010090000 -0.0016170000  0.0000000000
  0.0492940000 -0.0288290000  0.0059990000 -0.0014240000 -0.0025320000 -0.0038870000  0.0000000000
  0.1166940000 -0.0706740000  0.0151490000 -0.0035930000 -0.0070420000 -0.0114190000  0.0000000000
  0.2273250000 -0.1487780000  0.0337330000 -0.0080220000 -0.0138290000 -0.0208780000  0.0000000000
  0.3105540000 -0.2420600000  0.0615630000 -0.0146460000 -0.0302210000 -0.0503970000  0.0000000000
  0.2205840000 -0.2347210000  0.0694620000 -0.0166610000 -0.0239810000 -0.0320930000  0.0000000000
  0.0732470000  0.0422060000 -0.0241550000  0.0058890000 -0.0071850000 -0.0269460000  0.0000000000
  0.1131540000  0.4983350000 -0.2789840000  0.0693470000  0.1758840000  0.3275740000  0.0000000000
  0.1136590000  0.4868870000 -0.4386710000  0.1159210000  0.1462460000  0.2147230000  0.0000000000
  0.0193160000  0.0879040000  0.0909060000 -0.0327170000  0.0971840000  0.1170160000  0.0000000000
 -0.0004650000 -0.0052640000  0.7091310000 -0.2334140000 -1.0017360000 -2.4080240000  0.0000000000
  0.0001590000  0.0005520000  0.4311640000 -0.2869410000  0.1999570000  2.5936190000  0.0000000000
 -0.0000590000 -0.0006280000  0.0258980000  0.2839540000  2.2181040000  0.1447480000  0.0000000000
  0.0000620000  0.0005530000 -0.0110070000  0.5841130000 -1.3423230000 -2.5253120000  0.0000000000
 -0.0000080000 -0.0001180000  0.0038890000  0.2949620000 -0.6139360000  1.9476800000  1.0000000000
* p-type functions
   16    6
      11912.03000000
       2819.94700000
        915.94790000
        350.38420000
        148.48250000
         67.53944000
         32.30332000
         15.92786000
          8.03803500
          4.09391600
          2.02239000
          0.97610200
          0.45959500
          0.17719500
          0.07344200
          0.02933400
  0.0001040000 -0.0000350000  0.0000080000  0.0000100000  0.0000210000  0.0000000000
  0.0005330000 -0.0001790000  0.0000430000  0.0000540000  0.0001010000  0.0000000000
  0.0025880000 -0.0008700000  0.0002090000  0.0002610000  0.0005360000  0.0000000000
  0.0104700000 -0.0035410000  0.0008480000  0.0010710000  0.0019840000  0.0000000000
  0.0354710000 -0.0121500000  0.0029250000  0.0036390000  0.0075290000  0.0000000000
  0.0981640000 -0.0344710000  0.0082760000  0.0104610000  0.0191510000  0.0000000000
  0.2106310000 -0.0765940000  0.0185500000  0.0229850000  0.0486770000  0.0000000000
  0.3301970000 -0.1256220000  0.0303400000  0.0386720000  0.0671790000  0.0000000000
  0.3305000000 -0.1320480000  0.0327150000  0.0394990000  0.1039430000  0.0000000000
  0.1571860000  0.0193960000 -0.0087200000 -0.0068990000 -0.0555620000  0.0000000000
  0.0219670000  0.3164550000 -0.0886360000 -0.1146250000 -0.1916650000  0.0000000000
 -0.0017610000  0.4614890000 -0.1491650000 -0.1708870000 -0.6969070000  0.0000000000
 -0.0014300000  0.2980100000 -0.0932320000 -0.1652610000  0.5747490000  0.0000000000
 -0.0002900000  0.0495170000  0.2507080000  0.4058580000  1.1704990000  0.0000000000
  0.0000340000 -0.0041080000  0.5861800000  0.6742340000 -1.0063770000  0.0000000000
 -0.0000130000  0.0016930000  0.3140930000  0.0782790000 -0.2004620000  1.0000000000
* d-type functions
    8    4
         64.34020000
         18.84180000
          6.71983000
          2.65613000
          1.07368000
          0.42055700
          0.15481700
          0.05149000
  0.0038830000 -0.0039790000  0.0063860000  0.0000000000
  0.0262040000 -0.0267640000  0.0433010000  0.0000000000
  0.0968870000 -0.1018940000  0.1702500000  0.0000000000
  0.2316310000 -0.2371110000  0.3719460000  0.0000000000
  0.3519720000 -0.3132860000  0.2303500000  0.0000000000
  0.3725630000 -0.0465630000 -0.7820270000  0.0000000000
  0.2505630000  0.5840720000 -0.1235850000  0.0000000000
  0.0600620000  0.4153220000  0.7220380000  1.0000000000
* f-type functions
    2    2
          1.22740000
          0.27880000
  1.0000000000  0.0000000000
  0.0000000000  1.0000000000
* g-type functions
    1    1
          0.70920000
  1.0000000000

/V.cc-pVTZ-DK.Balabanov.20s16p8d2f1g.7s6p4d2f1g.
N.B. Balabanov, K.A. Peterson. J. Chem. Phys. 123 (2005) 064107. doi:10.1063/1.1998907
VANADIUM (20s,16p,8d,2f,1g) -> [7s,6p,4d,2f,1g]
    23.0   4
* s-type functions
   20    7
    3321857.00000000
     497435.60000000
     113202.70000000
      32063.33000000
      10459.62000000
       3775.50600000
       1472.04000000
        609.93310000
        265.26340000
        119.86070000
         55.44891000
         24.98372000
         11.88056000
          5.66031100
          2.49570300
          1.17786600
          0.52004400
          0.11596500
          0.05893800
          0.02694600
  0.0001180000 -0.0000660000  0.0000140000 -0.0000030000 -0.0000060000 -0.0000100000  0.0000000000
  0.0003490000 -0.0001940000  0.0000410000 -0.0000100000 -0.0000180000 -0.0000290000  0.0000000000
  0.0009820000 -0.0005450000  0.0001150000 -0.0000270000 -0.0000510000 -0.0000810000  0.0000000000
  0.0026180000 -0.0014570000  0.0003080000 -0.0000720000 -0.0001410000 -0.0002240000  0.0000000000
  0.0070320000 -0.0039270000  0.0008330000 -0.0001940000 -0.0003660000 -0.0005750000  0.0000000000
  0.0189660000 -0.0106680000  0.0022780000 -0.0005300000 -0.0010610000 -0.0017020000  0.0000000000
  0.0495440000 -0.0283160000  0.0061170000 -0.0014250000 -0.0026350000 -0.0040970000  0.0000000000
  0.1170070000 -0.0692880000  0.0154080000 -0.0035890000 -0.0073430000 -0.0118930000  0.0000000000
  0.2280590000 -0.1461110000  0.0343010000 -0.0080030000 -0.0143270000 -0.0220220000  0.0000000000
  0.3128050000 -0.2389450000  0.0627220000 -0.0146610000 -0.0316410000 -0.0524010000  0.0000000000
  0.2243300000 -0.2339170000  0.0710470000 -0.0167040000 -0.0247500000 -0.0349980000  0.0000000000
  0.0735890000  0.0421070000 -0.0241190000  0.0057060000 -0.0086380000 -0.0258510000  0.0000000000
  0.1075150000  0.5024910000 -0.2872100000  0.0703560000  0.1872210000  0.3416980000  0.0000000000
  0.1073700000  0.4878150000 -0.4426090000  0.1145620000  0.1479670000  0.2399620000  0.0000000000
  0.0180480000  0.0873120000  0.1068750000 -0.0359500000  0.0933070000  0.0310030000  0.0000000000
 -0.0004330000 -0.0053530000  0.7133290000 -0.2344200000 -1.0567540000 -2.3835830000  0.0000000000
  0.0001240000  0.0004350000  0.4194430000 -0.2726820000  0.2916520000  2.6992870000  0.0000000000
 -0.0000460000 -0.0005700000  0.0238310000  0.2965280000  2.1339990000 -0.2788310000  0.0000000000
  0.0000590000  0.0005410000 -0.0098830000  0.5772100000 -1.3543780000 -1.9836530000  0.0000000000
 -0.0000030000 -0.0000970000  0.0036330000  0.2866900000 -0.5520240000  1.7452720000  1.0000000000
* p-type functions
   16    6
      13273.20000000
       3142.12600000
       1020.58800000
        390.44070000
        165.50430000
         75.32006000
         36.05503000
         17.80436000
          9.00292900
          4.59454400
          2.27676000
          1.10117800
          0.51863800
          0.20057400
          0.08121700
          0.03173300
  0.0001080000 -0.0000370000  0.0000090000  0.0000110000  0.0000230000  0.0000000000
  0.0005390000 -0.0001840000  0.0000440000  0.0000560000  0.0001070000  0.0000000000
  0.0025820000 -0.0008830000  0.0002140000  0.0002660000  0.0005570000  0.0000000000
  0.0103900000 -0.0035760000  0.0008620000  0.0010870000  0.0020550000  0.0000000000
  0.0351890000 -0.0122640000  0.0029720000  0.0036880000  0.0077880000  0.0000000000
  0.0975890000 -0.0348910000  0.0084410000  0.0106400000  0.0198910000  0.0000000000
  0.2102360000 -0.0778890000  0.0189950000  0.0234680000  0.0507500000  0.0000000000
  0.3306940000 -0.1284150000  0.0312890000  0.0397630000  0.0705330000  0.0000000000
  0.3306980000 -0.1338960000  0.0333380000  0.0401880000  0.1081080000  0.0000000000
  0.1567000000  0.0231590000 -0.0100750000 -0.0080990000 -0.0606770000  0.0000000000
  0.0218570000  0.3220750000 -0.0925620000 -0.1183280000 -0.2162910000  0.0000000000
 -0.0017680000  0.4598860000 -0.1488610000 -0.1730030000 -0.6786280000  0.0000000000
 -0.0014570000  0.2931220000 -0.0823020000 -0.1539630000  0.6035630000  0.0000000000
 -0.0002830000  0.0484450000  0.2504590000  0.4118200000  1.1148540000  0.0000000000
  0.0000310000 -0.0037030000  0.5799250000  0.6696520000 -0.9880720000  0.0000000000
 -0.0000120000  0.0015520000  0.3218540000  0.0765210000 -0.1855030000  1.0000000000
* d-type functions
    8    4
         78.28410000
         23.01200000
          8.29016000
          3.30791000
          1.35555000
          0.53925800
          0.20125500
          0.06714600
  0.0035870000 -0.0038180000  0.0059800000  0.0000000000
  0.0249740000 -0.0265310000  0.0417790000  0.0000000000
  0.0940290000 -0.1030470000  0.1689470000  0.0000000000
  0.2290420000 -0.2466900000  0.3831330000  0.0000000000
  0.3518030000 -0.3129250000  0.2118890000  0.0000000000
  0.3708890000 -0.0275810000 -0.7715530000  0.0000000000
  0.2485580000  0.5660110000 -0.1298600000  0.0000000000
  0.0629030000  0.4242030000  0.7325050000  1.0000000000
* f-type functions
    2    2
          1.74880000
          0.40570000
  1.0000000000  0.0000000000
  0.0000000000  1.0000000000
* g-type functions
    1    1
          1.11270000
  1.0000000000

/Cr.cc-pVTZ-DK.Balabanov.20s16p8d2f1g.7s6p4d2f1g.
N.B. Balabanov, K.A. Peterson. J. Chem. Phys. 123 (2005) 064107. doi:10.1063/1.1998907
CHROMIUM (20s,16p,8d,2f,1g) -> [7s,6p,4d,2f,1g]
    24.0   4
* s-type functions
   20    7
    6177194.00000000
     924929.50000000
     210486.50000000
      59620.05000000
      19450.76000000
       7022.05600000
       2738.76300000
       1135.81400000
        495.09230000
        224.74870000
        105.38360000
         50.19359000
         22.24957000
         10.98265000
          5.38366500
          2.34368500
          1.10520200
          0.48784800
          0.08959900
          0.03342300
  0.0000840000 -0.0000460000  0.0000100000 -0.0000020000  0.0000040000 -0.0000070000  0.0000000000
  0.0002410000 -0.0001340000  0.0000290000 -0.0000070000  0.0000130000 -0.0000210000  0.0000000000
  0.0006580000 -0.0003640000  0.0000780000 -0.0000180000  0.0000360000 -0.0000580000  0.0000000000
  0.0016730000 -0.0009270000  0.0002000000 -0.0000450000  0.0000880000 -0.0001450000  0.0000000000
  0.0042480000 -0.0023610000  0.0005110000 -0.0001170000  0.0002390000 -0.0003840000  0.0000000000
  0.0108890000 -0.0060760000  0.0013170000 -0.0002980000  0.0005570000 -0.0009370000  0.0000000000
  0.0278590000 -0.0157230000  0.0034470000 -0.0007900000  0.0016820000 -0.0026480000  0.0000000000
  0.0678880000 -0.0390780000  0.0086680000 -0.0019570000  0.0034900000 -0.0060270000  0.0000000000
  0.1468020000 -0.0887110000  0.0204950000 -0.0047250000  0.0105120000 -0.0162070000  0.0000000000
  0.2556230000 -0.1701120000  0.0417010000 -0.0093680000  0.0153920000 -0.0279550000  0.0000000000
  0.2984080000 -0.2472980000  0.0693000000 -0.0162500000  0.0402770000 -0.0593480000  0.0000000000
  0.1745600000 -0.1863810000  0.0581890000 -0.0125490000  0.0073940000 -0.0278590000  0.0000000000
  0.0696900000  0.1584390000 -0.0761810000  0.0155500000  0.0140570000  0.0170670000  0.0000000000
  0.1141840000  0.5481250000 -0.3561380000  0.0916910000 -0.2936730000  0.4205010000  0.0000000000
  0.0840700000  0.3885790000 -0.3726510000  0.0854260000  0.0030100000  0.2026980000  0.0000000000
  0.0099260000  0.0492810000  0.2838030000 -0.0662500000 -0.1758500000 -0.4517940000  0.0000000000
 -0.0003160000 -0.0043050000  0.7149340000 -0.2868520000  1.5006460000 -1.9067910000  0.0000000000
  0.0000590000  0.0001110000  0.2908760000 -0.1703030000 -1.1269400000  2.8955150000  0.0000000000
  0.0000160000 -0.0000270000  0.0069090000  0.6967260000 -1.2270880000 -2.2377970000  0.0000000000
  0.0000220000  0.0001410000  0.0002540000  0.4475590000  1.4652390000  1.4096650000  1.0000000000
* p-type functions
   16    6
      14454.20000000
       3421.67600000
       1111.38700000
        425.19180000
        180.26230000
         82.06117000
         39.29726000
         19.41959000
          9.82889900
          5.01681000
          2.48709100
          1.19878000
          0.55869500
          0.20936600
          0.08472200
          0.03327800
  0.0001150000 -0.0000400000  0.0000090000  0.0000120000  0.0000250000  0.0000000000
  0.0005600000 -0.0001940000  0.0000460000  0.0000590000  0.0001160000  0.0000000000
  0.0026530000 -0.0009220000  0.0002190000  0.0002770000  0.0006020000  0.0000000000
  0.0106120000 -0.0037110000  0.0008780000  0.0011210000  0.0021980000  0.0000000000
  0.0358670000 -0.0127060000  0.0030300000  0.0038200000  0.0083680000  0.0000000000
  0.0993240000 -0.0361210000  0.0085680000  0.0109400000  0.0212190000  0.0000000000
  0.2135250000 -0.0805400000  0.0193430000  0.0243010000  0.0545450000  0.0000000000
  0.3339970000 -0.1323120000  0.0315600000  0.0405940000  0.0746730000  0.0000000000
  0.3282920000 -0.1340350000  0.0330560000  0.0407730000  0.1147010000  0.0000000000
  0.1505820000  0.0347070000 -0.0135900000 -0.0134400000 -0.0783210000  0.0000000000
  0.0200020000  0.3356300000 -0.0940090000 -0.1211060000 -0.2465150000  0.0000000000
 -0.0015630000  0.4612780000 -0.1498470000 -0.1827370000 -0.6773230000  0.0000000000
 -0.0012910000  0.2785730000 -0.0657160000 -0.1200720000  0.7479410000  0.0000000000
 -0.0002120000  0.0412210000  0.2711740000  0.4449520000  0.9845060000  0.0000000000
  0.0000240000 -0.0038000000  0.5750590000  0.6413430000 -1.0295180000  0.0000000000
 -0.0000090000  0.0014650000  0.3013730000  0.0579260000 -0.1109680000  1.0000000000
* d-type functions
    8    4
         89.47450000
         26.33680000
          9.53429000
          3.82118000
          1.57169000
          0.62642200
          0.23305500
          0.07630300
  0.0036170000 -0.0041240000  0.0059530000  0.0000000000
  0.0255390000 -0.0290980000  0.0422270000  0.0000000000
  0.0968340000 -0.1143160000  0.1730970000  0.0000000000
  0.2351220000 -0.2719580000  0.3927110000  0.0000000000
  0.3574460000 -0.3162730000  0.1544870000  0.0000000000
  0.3691600000  0.0374570000 -0.8070190000  0.0000000000
  0.2380780000  0.5894820000  0.0009440000  0.0000000000
  0.0547520000  0.3617680000  0.7044040000  1.0000000000
* f-type functions
    2    2
          2.22110000
          0.52310000
  1.0000000000  0.0000000000
  0.0000000000  1.0000000000
* g-type functions
    1    1
          1.41990000
  1.0000000000

/Mn.cc-pVTZ-DK.Balabanov.20s16p8d2f1g.7s6p4d2f1g.
N.B. Balabanov, K.A. Peterson. J. Chem. Phys. 123 (2005) 064107. doi:10.1063/1.1998907
MANGANESE (20s,16p,8d,2f,1g) -> [7s,6p,4d,2f,1g]
    25.0   4
* s-type functions
   20    7
    3960805.00000000
     593115.50000000
     134976.80000000
      38230.67000000
      12471.54000000
       4501.74300000
       1755.21200000
        727.30390000
        316.36780000
        143.00980000
         66.21805000
         29.91896000
         14.30318000
          6.83945100
          3.01237400
          1.41880800
          0.62362400
          0.13409800
          0.06554800
          0.02958400
  0.0001350000 -0.0000650000  0.0000160000 -0.0000040000 -0.0000070000 -0.0000110000  0.0000000000
  0.0003950000 -0.0001890000  0.0000460000 -0.0000100000 -0.0000210000 -0.0000340000  0.0000000000
  0.0010960000 -0.0005250000  0.0001280000 -0.0000290000 -0.0000570000 -0.0000930000  0.0000000000
  0.0028710000 -0.0013790000  0.0003370000 -0.0000750000 -0.0001530000 -0.0002500000  0.0000000000
  0.0075540000 -0.0036420000  0.0008910000 -0.0001990000 -0.0003900000 -0.0006340000  0.0000000000
  0.0199750000 -0.0097110000  0.0023910000 -0.0005330000 -0.0011070000 -0.0018190000  0.0000000000
  0.0515080000 -0.0254890000  0.0063340000 -0.0014130000 -0.0027160000 -0.0043920000  0.0000000000
  0.1210030000 -0.0622590000  0.0158660000 -0.0035420000 -0.0075260000 -0.0124300000  0.0000000000
  0.2360360000 -0.1322860000  0.0352360000 -0.0078710000 -0.0146430000 -0.0235800000  0.0000000000
  0.3264820000 -0.2204590000  0.0645450000 -0.0144660000 -0.0324340000 -0.0543090000  0.0000000000
  0.2393020000 -0.2215130000  0.0730570000 -0.0164250000 -0.0252390000 -0.0393500000  0.0000000000
  0.0718200000  0.0493360000 -0.0257370000  0.0057620000 -0.0086680000 -0.0205440000  0.0000000000
  0.0759500000  0.5165030000 -0.3026850000  0.0712660000  0.1951750000  0.3531150000  0.0000000000
  0.0750300000  0.4900740000 -0.4440650000  0.1094140000  0.1474640000  0.2786720000  0.0000000000
  0.0118360000  0.0845860000  0.1409020000 -0.0428130000  0.0703750000 -0.1195220000  0.0000000000
 -0.0003590000 -0.0068570000  0.7189900000 -0.2293830000 -1.0667770000 -2.2468870000  0.0000000000
 -0.0000620000 -0.0004660000  0.3952070000 -0.2461200000  0.3723110000  2.7026690000  0.0000000000
 -0.0000140000 -0.0005260000  0.0198510000  0.3096530000  1.9872070000 -0.5973580000  0.0000000000
  0.0000260000  0.0004990000 -0.0077830000  0.5658570000 -1.2893930000 -1.4948730000  0.0000000000
  0.0000000000 -0.0000870000  0.0031750000  0.2782580000 -0.5130850000  1.5310650000  1.0000000000
* p-type functions
   16    6
      16205.86000000
       3836.27400000
       1246.04800000
        476.75350000
        202.18950000
         92.09487000
         44.14720000
         21.85468000
         11.08596000
          5.67410800
          2.82317000
          1.36862100
          0.64443100
          0.24834600
          0.09717500
          0.03656500
  0.0001180000 -0.0000410000 -0.0000090000  0.0000130000  0.0000270000  0.0000000000
  0.0005550000 -0.0001930000 -0.0000440000  0.0000600000  0.0001220000  0.0000000000
  0.0025910000 -0.0009030000 -0.0002080000  0.0002790000  0.0006140000  0.0000000000
  0.0102970000 -0.0036140000 -0.0008320000  0.0011270000  0.0022650000  0.0000000000
  0.0348120000 -0.0123730000 -0.0028570000  0.0038180000  0.0084770000  0.0000000000
  0.0968140000 -0.0353410000 -0.0081640000  0.0110610000  0.0220190000  0.0000000000
  0.2099030000 -0.0794990000 -0.0184550000  0.0245850000  0.0557870000  0.0000000000
  0.3319070000 -0.1321930000 -0.0307730000  0.0420330000  0.0799210000  0.0000000000
  0.3311790000 -0.1356890000 -0.0319990000  0.0418110000  0.1168920000  0.0000000000
  0.1557000000  0.0301330000  0.0107510000 -0.0108470000 -0.0685680000  0.0000000000
  0.0209060000  0.3310290000  0.0908940000 -0.1265590000 -0.2828210000  0.0000000000
 -0.0028140000  0.4567780000  0.1379450000 -0.1789830000 -0.6506830000  0.0000000000
 -0.0021480000  0.2859100000  0.0761120000 -0.1260670000  0.7151330000  0.0000000000
 -0.0003790000  0.0465830000 -0.2313460000  0.4203830000  0.9592410000  0.0000000000
  0.0000360000 -0.0033840000 -0.5751700000  0.6578380000 -0.9371570000  0.0000000000
 -0.0000140000  0.0014170000 -0.3477560000  0.0748230000 -0.1584630000  1.0000000000
* d-type functions
    8    4
        101.90400000
         30.03370000
         10.92380000
          4.39740000
          1.81595000
          0.72573100
          0.26996100
          0.08776000
  0.0035750000 -0.0036460000  0.0058600000  0.0000000000
  0.0255750000 -0.0260790000  0.0421430000  0.0000000000
  0.0977470000 -0.1024550000  0.1737480000  0.0000000000
  0.2370560000 -0.2488950000  0.3964200000  0.0000000000
  0.3579230000 -0.3018870000  0.1643200000  0.0000000000
  0.3658070000  0.0083690000 -0.7198750000  0.0000000000
  0.2362960000  0.5397650000 -0.1641420000  0.0000000000
  0.0583510000  0.4497430000  0.7446620000  1.0000000000
* f-type functions
    2    2
          2.70320000
          0.64380000
  1.0000000000  0.0000000000
  0.0000000000  1.0000000000
* g-type functions
    1    1
          1.70220000
  1.0000000000

/Fe.cc-pVTZ-DK.Balabanov.20s16p8d2f1g.7s6p4d2f1g.
N.B. Balabanov, K.A. Peterson. J. Chem. Phys. 123 (2005) 064107. doi:10.1063/1.1998907
IRON (20s,16p,8d,2f,1g) -> [7s,6p,4d,2f,1g]
    26.0   4
* s-type functions
   20    7
    4316265.00000000
     646342.40000000
     147089.70000000
      41661.52000000
      13590.77000000
       4905.75000000
       1912.74600000
        792.60430000
        344.80650000
        155.89990000
         72.23091000
         32.72506000
         15.66762000
          7.50348300
          3.31222300
          1.55847100
          0.68391400
          0.14675700
          0.07058300
          0.03144900
  0.0001400000 -0.0000720000  0.0000170000 -0.0000040000 -0.0000070000 -0.0000120000  0.0000000000
  0.0004050000 -0.0002090000  0.0000490000 -0.0000110000 -0.0000210000 -0.0000360000  0.0000000000
  0.0011190000 -0.0005790000  0.0001350000 -0.0000290000 -0.0000580000 -0.0000990000  0.0000000000
  0.0029070000 -0.0015060000  0.0003520000 -0.0000770000 -0.0001550000 -0.0002630000  0.0000000000
  0.0075710000 -0.0039390000  0.0009230000 -0.0002010000 -0.0003930000 -0.0006640000  0.0000000000
  0.0198180000 -0.0103960000  0.0024520000 -0.0005350000 -0.0011010000 -0.0018690000  0.0000000000
  0.0507340000 -0.0270740000  0.0064510000 -0.0014080000 -0.0026930000 -0.0045420000  0.0000000000
  0.1187290000 -0.0657770000  0.0161060000 -0.0035180000 -0.0074040000 -0.0126010000  0.0000000000
  0.2311640000 -0.1390820000  0.0357420000 -0.0078140000 -0.0144840000 -0.0244230000  0.0000000000
  0.3193220000 -0.2301500000  0.0655280000 -0.0143720000 -0.0318530000 -0.0546520000  0.0000000000
  0.2336480000 -0.2296630000  0.0744300000 -0.0163830000 -0.0253520000 -0.0425410000  0.0000000000
  0.0740220000  0.0460910000 -0.0257110000  0.0056430000 -0.0078870000 -0.0159890000  0.0000000000
  0.0909520000  0.5150510000 -0.3086450000  0.0712210000  0.1914700000  0.3459640000  0.0000000000
  0.0888980000  0.4871750000 -0.4465440000  0.1078000000  0.1482420000  0.3206410000  0.0000000000
  0.0143020000  0.0843800000  0.1489850000 -0.0442620000  0.0507610000 -0.2021250000  0.0000000000
 -0.0003870000 -0.0059110000  0.7203950000 -0.2259990000 -1.0122460000 -2.1606730000  0.0000000000
  0.0000080000 -0.0000440000  0.3896980000 -0.2376280000  0.3423390000  2.6274860000  0.0000000000
 -0.0000250000 -0.0004870000  0.0191840000  0.2977800000  1.8572660000 -0.4754520000  0.0000000000
  0.0000320000  0.0004370000 -0.0070230000  0.5654970000 -1.0636790000 -1.5666130000  0.0000000000
 -0.0000010000 -0.0000860000  0.0031240000  0.2879370000 -0.6168730000  1.5127760000  1.0000000000
* p-type functions
   16    6
      17745.69000000
       4200.72100000
       1364.42900000
        522.08060000
        221.45950000
        100.90960000
         48.40115000
         23.98536000
         12.18250000
          6.24229800
          3.11094400
          1.50995800
          0.71084500
          0.27259800
          0.10397200
          0.03816600
  0.0001230000 -0.0000430000  0.0000090000  0.0000140000  0.0000300000  0.0000000000
  0.0005660000 -0.0002000000  0.0000440000  0.0000660000  0.0001340000  0.0000000000
  0.0026080000 -0.0009230000  0.0002010000  0.0003030000  0.0006590000  0.0000000000
  0.0102950000 -0.0036680000  0.0008000000  0.0012190000  0.0024470000  0.0000000000
  0.0347510000 -0.0125390000  0.0027380000  0.0041200000  0.0090140000  0.0000000000
  0.0966900000 -0.0358480000  0.0078480000  0.0119530000  0.0238230000  0.0000000000
  0.2100300000 -0.0808220000  0.0177390000  0.0266200000  0.0593640000  0.0000000000
  0.3324570000 -0.1346970000  0.0297490000  0.0456990000  0.0875800000  0.0000000000
  0.3307710000 -0.1369120000  0.0303890000  0.0450330000  0.1222860000  0.0000000000
  0.1547330000  0.0337130000 -0.0107650000 -0.0130110000 -0.0681120000  0.0000000000
  0.0209640000  0.3356700000 -0.0876890000 -0.1413750000 -0.3519070000  0.0000000000
 -0.0023460000  0.4554960000 -0.1284700000 -0.1941480000 -0.6237060000  0.0000000000
 -0.0018540000  0.2817600000 -0.0739960000 -0.1017700000  0.8414480000  0.0000000000
 -0.0003170000  0.0451500000  0.2154550000  0.4678640000  0.7920700000  0.0000000000
  0.0000300000 -0.0031650000  0.5720050000  0.6242180000 -0.9175100000  0.0000000000
 -0.0000120000  0.0013310000  0.3680790000  0.0562250000 -0.1226150000  1.0000000000
* d-type functions
    8    4
        114.88400000
         33.88780000
         12.37300000
          4.99925000
          2.07043000
          0.82818300
          0.30754700
          0.09945500
  0.0035320000 -0.0038960000  0.0057030000  0.0000000000
  0.0255500000 -0.0282070000  0.0416910000  0.0000000000
  0.0983570000 -0.1115730000  0.1720430000  0.0000000000
  0.2379190000 -0.2728390000  0.4086070000  0.0000000000
  0.3565390000 -0.3171520000  0.1195250000  0.0000000000
  0.3628480000  0.0520620000 -0.7660380000  0.0000000000
  0.2388030000  0.5612690000 -0.0430810000  0.0000000000
  0.0619040000  0.3891550000  0.7169350000  1.0000000000
* f-type functions
    2    2
          3.22430000
          0.77580000
  1.0000000000  0.0000000000
  0.0000000000  1.0000000000
* g-type functions
    1    1
          2.05150000
  1.0000000000

/Co.cc-pVTZ-DK.Balabanov.20s16p8d2f1g.7s6p4d2f1g.
N.B. Balabanov, K.A. Peterson. J. Chem. Phys. 123 (2005) 064107. doi:10.1063/1.1998907
COBALT (20s,16p,8d,2f,1g) -> [7s,6p,4d,2f,1g]
    27.0   4
* s-type functions
   20    7
    4675675.00000000
     700161.50000000
     159337.30000000
      45130.46000000
      14722.38000000
       5314.22200000
       2072.01800000
        858.61880000
        373.54970000
        168.92290000
         78.29639000
         35.52123000
         17.04144000
          8.17300000
          3.61031800
          1.69704700
          0.74353200
          0.15834400
          0.07503600
          0.03309100
  0.0001460000 -0.0000770000  0.0000180000 -0.0000040000 -0.0000070000 -0.0000130000  0.0000000000
  0.0004220000 -0.0002220000  0.0000520000 -0.0000110000 -0.0000220000 -0.0000390000  0.0000000000
  0.0011570000 -0.0006100000  0.0001420000 -0.0000300000 -0.0000590000 -0.0001060000  0.0000000000
  0.0029820000 -0.0015760000  0.0003670000 -0.0000780000 -0.0001550000 -0.0002790000  0.0000000000
  0.0076950000 -0.0040850000  0.0009540000 -0.0002040000 -0.0003910000 -0.0007010000  0.0000000000
  0.0199530000 -0.0106780000  0.0025120000 -0.0005360000 -0.0010810000 -0.0019420000  0.0000000000
  0.0507170000 -0.0276130000  0.0065640000 -0.0014020000 -0.0026380000 -0.0047230000  0.0000000000
  0.1182300000 -0.0668160000  0.0163310000 -0.0034900000 -0.0071860000 -0.0129400000  0.0000000000
  0.2298040000 -0.1409790000  0.0361860000 -0.0077400000 -0.0141410000 -0.0253430000  0.0000000000
  0.3172830000 -0.2329210000  0.0663520000 -0.0142400000 -0.0308010000 -0.0558190000  0.0000000000
  0.2323250000 -0.2320460000  0.0753430000 -0.0162270000 -0.0250300000 -0.0449660000  0.0000000000
  0.0748630000  0.0465530000 -0.0264870000  0.0056920000 -0.0064990000 -0.0133060000  0.0000000000
  0.0946490000  0.5169650000 -0.3148050000  0.0711360000  0.1848310000  0.3496310000  0.0000000000
  0.0916250000  0.4848400000 -0.4467120000  0.1054210000  0.1464850000  0.3478650000  0.0000000000
  0.0146600000  0.0832890000  0.1601200000 -0.0461870000  0.0302550000 -0.2728950000  0.0000000000
 -0.0004140000 -0.0058110000  0.7213240000 -0.2220020000 -0.9422380000 -2.0932430000  0.0000000000
  0.0000050000 -0.0000540000  0.3823570000 -0.2286240000  0.3006350000  2.5711840000  0.0000000000
 -0.0000280000 -0.0004680000  0.0181880000  0.2913320000  1.7414180000 -0.3869540000  0.0000000000
  0.0000290000  0.0003890000 -0.0064150000  0.5630580000 -0.8549780000 -1.5896740000  0.0000000000
 -0.0000030000 -0.0000890000  0.0029870000  0.2942770000 -0.7178920000  1.4718710000  1.0000000000
* p-type functions
   16    6
      19267.78000000
       4560.98600000
       1481.43600000
        566.86710000
        240.49100000
        109.61050000
         52.59491000
         26.08361000
         13.26143000
          6.79977800
          3.39341400
          1.64876600
          0.77628200
          0.29720900
          0.11335200
          0.04151000
  0.0001300000 -0.0000460000 -0.0000100000  0.0000160000  0.0000330000  0.0000000000
  0.0005820000 -0.0002080000 -0.0000460000  0.0000720000  0.0001460000  0.0000000000
  0.0026480000 -0.0009470000 -0.0002090000  0.0003260000  0.0006970000  0.0000000000
  0.0103810000 -0.0037380000 -0.0008250000  0.0012980000  0.0026050000  0.0000000000
  0.0349630000 -0.0127500000 -0.0028170000  0.0043920000  0.0094500000  0.0000000000
  0.0972290000 -0.0364470000 -0.0080680000  0.0127000000  0.0253560000  0.0000000000
  0.2112480000 -0.0822350000 -0.0182680000  0.0284240000  0.0621220000  0.0000000000
  0.3338520000 -0.1369990000 -0.0305860000  0.0485330000  0.0939380000  0.0000000000
  0.3297510000 -0.1371210000 -0.0308830000  0.0477520000  0.1254080000  0.0000000000
  0.1522940000  0.0393210000  0.0123030000 -0.0166520000 -0.0692560000  0.0000000000
  0.0202650000  0.3412260000  0.0904310000 -0.1536670000 -0.4148930000  0.0000000000
 -0.0022850000  0.4536340000  0.1308200000 -0.2056630000 -0.5713060000  0.0000000000
 -0.0018110000  0.2761140000  0.0692110000 -0.0721800000  0.9059860000  0.0000000000
 -0.0002960000  0.0436650000 -0.2248820000  0.4831410000  0.6871310000  0.0000000000
  0.0000280000 -0.0030700000 -0.5696560000  0.5994720000 -0.8901150000  0.0000000000
 -0.0000110000  0.0012920000 -0.3618730000  0.0560000000 -0.1180650000  1.0000000000
* d-type functions
    8    4
        128.39200000
         37.89380000
         13.87980000
          5.62544000
          2.33539000
          0.93519200
          0.34695300
          0.11172300
  0.0035050000 -0.0040650000  0.0054720000  0.0000000000
  0.0255830000 -0.0297290000  0.0404550000  0.0000000000
  0.0990840000 -0.1184660000  0.1672810000  0.0000000000
  0.2391390000 -0.2897200000  0.4079820000  0.0000000000
  0.3561510000 -0.3203480000  0.0937800000  0.0000000000
  0.3604140000  0.0856800000 -0.7662770000  0.0000000000
  0.2392120000  0.5591230000 -0.0083060000  0.0000000000
  0.0641610000  0.3634010000  0.7214190000  1.0000000000
* f-type functions
    2    2
          3.77240000
          0.91700000
  1.0000000000  0.0000000000
  0.0000000000  1.0000000000
* g-type functions
    1    1
          2.42290000
  1.0000000000

/Ni.cc-pVTZ-DK.Balabanov.20s16p8d2f1g.7s6p4d2f1g.
N.B. Balabanov, K.A. Peterson. J. Chem. Phys. 123 (2005) 064107. doi:10.1063/1.1998907
NICKEL (20s,16p,8d,2f,1g) -> [7s,6p,4d,2f,1g]
    28.0   4
* s-type functions
   20    7
    5045991.00000000
     755614.20000000
     171956.80000000
      48704.79000000
      15888.41000000
       5735.12300000
       2236.13700000
        926.64680000
        403.17430000
        182.34760000
         84.54885000
         38.39634000
         18.45859000
          8.86354800
          3.91622700
          1.83887000
          0.80436200
          0.16979700
          0.07930600
          0.03467700
  0.0001570000 -0.0000710000  0.0000190000 -0.0000040000 -0.0000080000 -0.0000140000  0.0000000000
  0.0004530000 -0.0002060000  0.0000540000 -0.0000110000 -0.0000230000 -0.0000410000  0.0000000000
  0.0012370000 -0.0005620000  0.0001480000 -0.0000310000 -0.0000620000 -0.0001120000  0.0000000000
  0.0031650000 -0.0014420000  0.0003810000 -0.0000810000 -0.0001630000 -0.0002930000  0.0000000000
  0.0080950000 -0.0037060000  0.0009810000 -0.0002080000 -0.0004080000 -0.0007340000  0.0000000000
  0.0208040000 -0.0096110000  0.0025590000 -0.0005430000 -0.0011120000 -0.0019960000  0.0000000000
  0.0525340000 -0.0247360000  0.0066410000 -0.0014080000 -0.0027090000 -0.0048850000  0.0000000000
  0.1221290000 -0.0599030000  0.0164600000 -0.0034930000 -0.0073090000 -0.0131080000  0.0000000000
  0.2376390000 -0.1273860000  0.0364190000 -0.0077330000 -0.0144650000 -0.0262220000  0.0000000000
  0.3303120000 -0.2141810000  0.0667320000 -0.0142230000 -0.0311820000 -0.0559520000  0.0000000000
  0.2459140000 -0.2183240000  0.0757390000 -0.0161810000 -0.0258350000 -0.0480980000  0.0000000000
  0.0722760000  0.0525980000 -0.0275100000  0.0058410000 -0.0053470000 -0.0074570000  0.0000000000
  0.0635120000  0.5249320000 -0.3190460000  0.0715790000  0.1860150000  0.3403920000  0.0000000000
  0.0618840000  0.4880070000 -0.4449190000  0.1037370000  0.1546580000  0.3967560000  0.0000000000
  0.0094000000  0.0824840000  0.1724220000 -0.0483150000  0.0114970000 -0.3814920000  0.0000000000
 -0.0002190000 -0.0067950000  0.7155720000 -0.2193040000 -0.9445660000 -1.9913800000  0.0000000000
 -0.0000790000 -0.0006430000  0.3791720000 -0.2208170000  0.3343100000  2.5352790000  0.0000000000
 -0.0000050000 -0.0004920000  0.0199360000  0.2869700000  1.6418710000 -0.4325800000  0.0000000000
  0.0000030000  0.0003540000 -0.0074760000  0.5599800000 -0.7399980000 -1.4869520000  0.0000000000
  0.0000000000 -0.0001060000  0.0032710000  0.2994010000 -0.7532470000  1.4115110000  1.0000000000
* p-type functions
   16    6
      21027.92000000
       4977.56000000
       1616.74000000
        618.67180000
        262.51830000
        119.69070000
         57.46585000
         28.52829000
         14.52148000
          7.45385000
          3.72355300
          1.80981300
          0.85133600
          0.32340580
          0.11902100
          0.04216200
  0.0001350000 -0.0000480000  0.0000100000  0.0000200000  0.0000360000  0.0000000000
  0.0005920000 -0.0002120000  0.0000430000  0.0000880000  0.0001550000  0.0000000000
  0.0026560000 -0.0009520000  0.0001930000  0.0003950000  0.0007280000  0.0000000000
  0.0103370000 -0.0037330000  0.0007600000  0.0015560000  0.0027250000  0.0000000000
  0.0347520000 -0.0127070000  0.0025820000  0.0052820000  0.0097810000  0.0000000000
  0.0967040000 -0.0363710000  0.0074280000  0.0152130000  0.0265470000  0.0000000000
  0.2106590000 -0.0822820000  0.0167980000  0.0343730000  0.0644440000  0.0000000000
  0.3338280000 -0.1376490000  0.0283950000  0.0584340000  0.0994710000  0.0000000000
  0.3302200000 -0.1371660000  0.0281620000  0.0589690000  0.1302080000  0.0000000000
  0.1528010000  0.0402870000 -0.0111460000 -0.0229370000 -0.0707070000  0.0000000000
  0.0201490000  0.3422120000 -0.0833490000 -0.1978840000 -0.4819430000  0.0000000000
 -0.0027090000  0.4496570000 -0.1160880000 -0.2473250000 -0.5056470000  0.0000000000
 -0.0021100000  0.2777700000 -0.0700600000  0.0095690000  1.0016490000  0.0000000000
 -0.0003520000  0.0464150000  0.1995030000  0.5450030000  0.4887760000  0.0000000000
  0.0000360000 -0.0029490000  0.5660100000  0.5235180000 -0.8793020000  0.0000000000
 -0.0000120000  0.0012920000  0.3926790000  0.0357030000 -0.0892980000  1.0000000000
* d-type functions
    8    4
        142.59040000
         42.10219000
         15.46337000
          6.28381000
          2.61417000
          1.04802000
          0.38865200
          0.12466400
  0.0033890000 -0.0035270000  0.0050760000  0.0000000000
  0.0249280000 -0.0259470000  0.0378570000  0.0000000000
  0.0970560000 -0.1036600000  0.1549620000  0.0000000000
  0.2338120000 -0.2523870000  0.3852530000  0.0000000000
  0.3466580000 -0.2967270000  0.1775600000  0.0000000000
  0.3517990000 -0.0005790000 -0.6259900000  0.0000000000
  0.2521850000  0.4403890000 -0.3418510000  0.0000000000
  0.1015510000  0.5415980000  0.7912730000  1.0000000000
* f-type functions
    2    2
          4.34550000
          1.06800000
  1.0000000000  0.0000000000
  0.0000000000  1.0000000000
* g-type functions
    1    1
          2.92840000
  1.0000000000

/Cu.cc-pVTZ-DK.Balabanov.20s16p8d2f1g.7s6p4d2f1g.
N.B. Balabanov, K.A. Peterson. J. Chem. Phys. 123 (2005) 064107. doi:10.1063/1.1998907
COPPER (20s,16p,8d,2f,1g) -> [7s,6p,4d,2f,1g]
    29.0   4
* s-type functions
   20    7
    5430321.00000000
     813166.50000000
     185054.40000000
      52414.66000000
      17098.68000000
       6171.99400000
       2406.48100000
        997.25840000
        433.92890000
        196.28690000
         91.04280000
         41.38425000
         19.93278000
          9.58189100
          4.23451600
          1.98581400
          0.86708300
          0.18133900
          0.08365700
          0.03626700
  0.0001580000 -0.0000890000  0.0000200000 -0.0000040000 -0.0000080000 -0.0000150000  0.0000000000
  0.0004520000 -0.0002550000  0.0000570000 -0.0000120000 -0.0000220000 -0.0000440000  0.0000000000
  0.0012290000 -0.0006940000  0.0001560000 -0.0000320000 -0.0000590000 -0.0001200000  0.0000000000
  0.0031200000 -0.0017660000  0.0003990000 -0.0000820000 -0.0001520000 -0.0003110000  0.0000000000
  0.0079120000 -0.0044980000  0.0010190000 -0.0002080000 -0.0003780000 -0.0007720000  0.0000000000
  0.0201420000 -0.0115450000  0.0026360000 -0.0005390000 -0.0010180000 -0.0020890000  0.0000000000
  0.0504620000 -0.0294180000  0.0067920000 -0.0013880000 -0.0024730000 -0.0050510000  0.0000000000
  0.1166160000 -0.0705170000  0.0167720000 -0.0034300000 -0.0066140000 -0.0135990000  0.0000000000
  0.2255430000 -0.1477880000  0.0370240000 -0.0075790000 -0.0131520000 -0.0268750000  0.0000000000
  0.3101520000 -0.2423800000  0.0678320000 -0.0139340000 -0.0280830000 -0.0581380000  0.0000000000
  0.2261390000 -0.2390600000  0.0767680000 -0.0158250000 -0.0236610000 -0.0483310000  0.0000000000
  0.0769920000  0.0476930000 -0.0285880000  0.0058910000 -0.0036580000 -0.0099160000  0.0000000000
  0.1087550000  0.5194670000 -0.3262330000  0.0706480000  0.1674510000  0.3623720000  0.0000000000
  0.1029690000  0.4781070000 -0.4451460000  0.1003460000  0.1378490000  0.3778960000  0.0000000000
  0.0162990000  0.0805580000  0.1815320000 -0.0494610000  0.0016950000 -0.3717270000  0.0000000000
 -0.0005390000 -0.0056280000  0.7219160000 -0.2136180000 -0.7988610000 -1.9911290000  0.0000000000
 -0.0000020000 -0.0000720000  0.3686320000 -0.2122030000  0.2036390000  2.4682360000  0.0000000000
 -0.0000380000 -0.0004330000  0.0163950000  0.2812990000  1.5496910000 -0.2144460000  0.0000000000
  0.0000260000  0.0003080000 -0.0055260000  0.5560680000 -0.4950240000 -1.6347140000  0.0000000000
 -0.0000090000 -0.0000990000  0.0027000000  0.3067010000 -0.8961200000  1.3938200000  1.0000000000
* p-type functions
   16    6
      22760.57000000
       5387.67900000
[...]
 -0.0000110000 -0.0000170000 -0.0002380000  0.0347060000  0.2761890000  2.0537870000 -1.5455260000  0.0000000000
  0.0000070000  0.0000090000  0.0002020000 -0.0119300000  0.6217720000 -1.3630430000 -0.6554390000  0.0000000000
  0.0000000000  0.0000000000  0.0000000000  0.0000000000  0.0000000000  0.0000000000  0.0000000000  1.0000000000
* p-type functions
   21    7
    1452000.00000000
     242440.00000000
      54514.60000000
      15468.70000000
       5248.35000000
       2037.69000000
        874.06800000
        403.00300000
        195.57100000
         98.33940000
         50.64900000
         26.49320000
         13.98030000
          7.39790000
          3.90026000
          2.03207000
          1.00861000
          0.48195500
          0.18504000
          0.07624200
          0.03065400
  0.0000160000 -0.0000070000  0.0000030000 -0.0000010000 -0.0000010000 -0.0000020000  0.0000000000
  0.0000550000 -0.0000230000  0.0000090000 -0.0000020000 -0.0000040000 -0.0000060000  0.0000000000
  0.0002070000 -0.0000870000  0.0000340000 -0.0000090000 -0.0000160000 -0.0000240000  0.0000000000
  0.0007370000 -0.0003110000  0.0001210000 -0.0000310000 -0.0000560000 -0.0000860000  0.0000000000
  0.0025880000 -0.0010960000  0.0004250000 -0.0001090000 -0.0001990000 -0.0003100000  0.0000000000
  0.0087400000 -0.0037280000  0.0014470000 -0.0003710000 -0.0006690000 -0.0010280000  0.0000000000
  0.0272330000 -0.0117680000  0.0045760000 -0.0011790000 -0.0021410000 -0.0033530000  0.0000000000
  0.0752290000 -0.0333290000  0.0129940000 -0.0033370000 -0.0060000000 -0.0092050000  0.0000000000
  0.1724010000 -0.0795170000  0.0311910000 -0.0080470000 -0.0146490000 -0.0230360000  0.0000000000
  0.3026450000 -0.1474680000  0.0582600000 -0.0149740000 -0.0268340000 -0.0409390000  0.0000000000
  0.3516500000 -0.1762520000  0.0701040000 -0.0181950000 -0.0335550000 -0.0542620000  0.0000000000
  0.2078440000 -0.0196990000 -0.0003640000  0.0006240000  0.0026000000  0.0090420000  0.0000000000
  0.0417110000  0.3033190000 -0.1519670000  0.0399400000  0.0699410000  0.1061360000  0.0000000000
 -0.0064740000  0.4980940000 -0.2839930000  0.0778640000  0.1473520000  0.2503260000  0.0000000000
 -0.0054520000  0.2815930000 -0.1329090000  0.0321270000  0.0507380000  0.0712790000  0.0000000000
 -0.0007630000  0.0404230000  0.3370420000 -0.1072560000 -0.1932550000 -0.4298390000  0.0000000000
  0.0000240000 -0.0003950000  0.5386410000 -0.2039290000 -0.4491210000 -0.9502270000  0.0000000000
  0.0000870000 -0.0022270000  0.2994580000 -0.0832740000  0.0579430000  1.4174230000  0.0000000000
 -0.0000010000 -0.0000530000  0.0409390000  0.3000320000  0.7129020000  0.3255950000  0.0000000000
  0.0000030000 -0.0000720000 -0.0031450000  0.5736740000  0.3585830000 -1.0012110000  0.0000000000
  0.0000000000  0.0000000000  0.0000000000  0.0000000000  0.0000000000  0.0000000000  1.0000000000
* d-type functions
   14    5
       2542.35000000
        743.00800000
        276.95200000
        119.66900000
         56.34480000
         27.85680000
         14.15910000
          7.29568000
          3.75090000
          1.85526000
          0.88205900
          0.40062200
          0.17133100
          0.06686500
  0.0001550000 -0.0000450000  0.0000440000 -0.0000680000  0.0000000000
  0.0012990000 -0.0003750000  0.0003680000 -0.0005600000  0.0000000000
  0.0077890000 -0.0022530000  0.0022170000 -0.0034280000  0.0000000000
  0.0319190000 -0.0093050000  0.0091350000 -0.0139950000  0.0000000000
  0.0967720000 -0.0284640000  0.0281380000 -0.0439260000  0.0000000000
  0.2147630000 -0.0638600000  0.0630960000 -0.0976020000  0.0000000000
  0.3281110000 -0.0941660000  0.0920460000 -0.1382830000  0.0000000000
  0.3375300000 -0.0878080000  0.0779820000 -0.0910010000  0.0000000000
  0.1893340000  0.0272670000 -0.0415170000  0.1225150000  0.0000000000
  0.0417930000  0.2411360000 -0.3024460000  0.6496760000  0.0000000000
  0.0021340000  0.3760150000 -0.3908460000  0.0300890000  0.0000000000
  0.0005090000  0.3479190000  0.0893140000 -0.9156450000  0.0000000000
  0.0000170000  0.2077240000  0.5664890000  0.0780680000  0.0000000000
  0.0000000000  0.0000000000  0.0000000000  0.0000000000  1.0000000000
* f-type functions
    2    2
          1.50740000
          0.43860000
  1.0000000000  0.0000000000
  0.0000000000  1.0000000000
* g-type functions
    1    1
          1.00500000
  1.0000000000

/Rh.cc-pVTZ-DK.Peterson.26s21p14d2f1g.8s7p5d2f1g.
K.A. Peterson, D. Figgen, M. Dolg, H. Stoll. J. Chem. Phys. 126 (2007) 124101. doi:10.1063/1.2647019
RHODIUM (26s,21p,14d,2f,1g) -> [8s,7p,5d,2f,1g]
    45.0   4
* s-type functions
   26    8
  213061000.00000000
   33108100.00000000
    6913440.00000000
    1810980.00000000
     562527.00000000
     198074.00000000
      76340.60000000
      31371.20000000
      13490.60000000
       5996.12000000
       2734.36000000
       1274.85000000
        607.12100000
        295.44600000
        146.99100000
         74.72150000
         38.69380000
         20.27750000
         10.63140000
          5.47961000
          2.70832000
          1.31885000
          0.60010000
          0.15596700
          0.07445700
          0.03225600
  0.0000410000 -0.0000260000  0.0000070000 -0.0000030000  0.0000010000  0.0000010000  0.0000020000  0.0000000000
  0.0001100000 -0.0000680000  0.0000180000 -0.0000070000  0.0000020000  0.0000040000  0.0000050000  0.0000000000
  0.0003010000 -0.0001870000  0.0000490000 -0.0000200000  0.0000050000  0.0000110000  0.0000150000  0.0000000000
  0.0006840000 -0.0004250000  0.0001130000 -0.0000450000  0.0000120000  0.0000240000  0.0000340000  0.0000000000
  0.0014550000 -0.0009060000  0.0002400000 -0.0000970000  0.0000250000  0.0000520000  0.0000730000  0.0000000000
  0.0029370000 -0.0018340000  0.0004870000 -0.0001970000  0.0000510000  0.0001050000  0.0001480000  0.0000000000
  0.0058650000 -0.0036760000  0.0009810000 -0.0003960000  0.0001020000  0.0002140000  0.0002980000  0.0000000000
  0.0117520000 -0.0074080000  0.0019860000 -0.0008020000  0.0002080000  0.0004220000  0.0006000000  0.0000000000
  0.0239790000 -0.0152700000  0.0041370000 -0.0016680000  0.0004320000  0.0009110000  0.0012610000  0.0000000000
  0.0494270000 -0.0320130000  0.0087900000 -0.0035450000  0.0009180000  0.0018440000  0.0026480000  0.0000000000
  0.0997830000 -0.0667870000  0.0189150000 -0.0076080000  0.0019690000  0.0042110000  0.0057740000  0.0000000000
  0.1829520000 -0.1304240000  0.0387700000 -0.0155920000  0.0040410000  0.0079840000  0.0116230000  0.0000000000
  0.2665460000 -0.2165740000  0.0710510000 -0.0284530000  0.0073700000  0.0161860000  0.0217940000  0.0000000000
  0.2442990000 -0.2499370000  0.0935170000 -0.0376360000  0.0097800000  0.0178910000  0.0277530000  0.0000000000
  0.1089850000 -0.0927970000  0.0345320000 -0.0138950000  0.0035900000  0.0131830000  0.0124740000  0.0000000000
  0.0817500000  0.2900700000 -0.2152480000  0.0904650000 -0.0236740000 -0.0626660000 -0.0746090000  0.0000000000
  0.1214490000  0.5194750000 -0.5084960000  0.2336940000 -0.0620100000 -0.1015000000 -0.1821660000  0.0000000000
  0.0595890000  0.2618590000 -0.3143880000  0.1499740000 -0.0400480000 -0.1418450000 -0.1293220000  0.0000000000
  0.0166220000  0.0497270000  0.4448340000 -0.2678420000  0.0739010000  0.2716340000  0.2791770000  0.0000000000
  0.0135140000  0.0264760000  0.7468470000 -0.7601190000  0.2301930000  0.3220610000  0.7646760000  0.0000000000
  0.0033440000  0.0059780000  0.1836460000 -0.0926090000  0.0170700000  0.3821780000  0.1366130000  0.0000000000
 -0.0000500000 -0.0000730000  0.0040760000  0.8262530000 -0.3280960000 -1.7098630000 -3.3264750000  0.0000000000
  0.0000260000 -0.0000110000  0.0030130000  0.5128390000 -0.3218680000  0.5355740000  3.5716640000  0.0000000000
 -0.0000120000 -0.0000100000 -0.0001950000  0.0339050000  0.2411940000  1.8982110000 -1.0829530000  0.0000000000
  0.0000070000  0.0000050000  0.0001740000 -0.0105950000  0.6189110000 -1.0618010000 -1.1848310000  0.0000000000
  0.0000000000  0.0000000000  0.0000000000  0.0000000000  0.0000000000  0.0000000000  0.0000000000  1.0000000000
* p-type functions
   21    7
    1586690.00000000
     267081.00000000
      60148.60000000
      17023.40000000
       5748.15000000
       2219.38000000
        947.02300000
        434.79800000
        210.40800000
        105.66300000
         54.42890000
         28.50700000
         15.07320000
          7.99396000
          4.22239000
          2.20200000
          1.09466000
          0.52413700
          0.20417000
          0.08422700
          0.03379700
  0.0000160000 -0.0000070000  0.0000030000 -0.0000010000 -0.0000010000 -0.0000020000  0.0000000000
  0.0000550000 -0.0000240000  0.0000090000 -0.0000020000 -0.0000040000 -0.0000070000  0.0000000000
  0.0002050000 -0.0000870000  0.0000340000 -0.0000090000 -0.0000170000 -0.0000250000  0.0000000000
  0.0007190000 -0.0003070000  0.0001210000 -0.0000320000 -0.0000580000 -0.0000880000  0.0000000000
  0.0025060000 -0.0010740000  0.0004220000 -0.0001110000 -0.0002060000 -0.0003100000  0.0000000000
  0.0084360000 -0.0036410000  0.0014320000 -0.0003750000 -0.0006920000 -0.0010360000  0.0000000000
  0.0263400000 -0.0115130000  0.0045390000 -0.0011920000 -0.0022160000 -0.0033490000  0.0000000000
  0.0731120000 -0.0327470000  0.0129400000 -0.0033900000 -0.0062500000 -0.0093580000  0.0000000000
  0.1687330000 -0.0786590000  0.0312870000 -0.0082320000 -0.0153280000 -0.0232300000  0.0000000000
  0.2988080000 -0.1470790000  0.0589230000 -0.0154520000 -0.0284180000 -0.0424770000  0.0000000000
  0.3522800000 -0.1789620000  0.0722720000 -0.0191290000 -0.0360050000 -0.0555120000  0.0000000000
  0.2139170000 -0.0282530000  0.0031760000 -0.0003080000  0.0007390000  0.0040330000  0.0000000000
  0.0456750000  0.2951900000 -0.1513070000  0.0406730000  0.0737870000  0.1140780000  0.0000000000
 -0.0055150000  0.5009450000 -0.2918580000  0.0815780000  0.1567930000  0.2471390000  0.0000000000
 -0.0051750000  0.2883620000 -0.1385420000  0.0348050000  0.0600870000  0.1068440000  0.0000000000
 -0.0007540000  0.0422210000  0.3418460000 -0.1120900000 -0.2175560000 -0.5122660000  0.0000000000
  0.0000190000 -0.0001020000  0.5397560000 -0.2104010000 -0.4730350000 -0.8892670000  0.0000000000
  0.0000800000 -0.0021210000  0.2966600000 -0.0819680000  0.1035350000  1.4465490000  0.0000000000
 -0.0000010000 -0.0000250000  0.0408550000  0.3056700000  0.7017780000  0.2479960000  0.0000000000
  0.0000030000 -0.0000780000 -0.0027560000  0.5729850000  0.3464260000 -0.9632110000  0.0000000000
  0.0000000000  0.0000000000  0.0000000000  0.0000000000  0.0000000000  0.0000000000  1.0000000000
* d-type functions
   14    5
       2792.97000000
        802.41100000
        296.38200000
        127.70600000
         60.19140000
         29.82870000
         15.18940000
          7.83386000
          4.03470000
          2.00680000
          0.95897800
          0.43786900
          0.18840200
          0.07390600
  0.0001480000 -0.0000440000  0.0000450000 -0.0000660000  0.0000000000
  0.0012730000 -0.0003830000  0.0003860000 -0.0005640000  0.0000000000
  0.0077100000 -0.0023210000  0.0023570000 -0.0034690000  0.0000000000
  0.0316940000 -0.0096160000  0.0097350000 -0.0142960000  0.0000000000
  0.0960960000 -0.0294330000  0.0300490000 -0.0446570000  0.0000000000
  0.2138980000 -0.0662430000  0.0675750000 -0.1006180000  0.0000000000
  0.3292350000 -0.0985040000  0.0991900000 -0.1407410000  0.0000000000
  0.3391930000 -0.0913240000  0.0820690000 -0.0900030000  0.0000000000
  0.1871580000  0.0328620000 -0.0522600000  0.1367850000  0.0000000000
  0.0403970000  0.2523970000 -0.3346050000  0.6761930000  0.0000000000
  0.0022420000  0.3790570000 -0.3769710000 -0.0619930000  0.0000000000
  0.0005540000  0.3402040000  0.1428500000 -0.9061800000  0.0000000000
  0.0000850000  0.1979080000  0.5594820000  0.1541380000  0.0000000000
  0.0000000000  0.0000000000  0.0000000000  0.0000000000  1.0000000000
* f-type functions
    2    2
          1.72140000
          0.50800000
  1.0000000000  0.0000000000
  0.0000000000  1.0000000000
* g-type functions
    1    1
          1.15570000
  1.0000000000

/Pd.cc-pVTZ-DK.Peterson.26s21p14d2f1g.8s7p5d2f1g.
K.A. Peterson, D. Figgen, M. Dolg, H. Stoll. J. Chem. Phys. 126 (2007) 124101. doi:10.1063/1.2647019
PALLADIUM (26s,21p,14d,2f,1g) -> [8s,7p,5d,2f,1g]
    46.0   4
* s-type functions
   26    8
  231969000.00000000
   35874000.00000000
    7478510.00000000
    1959210.00000000
     609102.00000000
     214666.00000000
      82772.40000000
      34005.00000000
      14607.50000000
       6480.77000000
       2948.38000000
       1370.97000000
        651.16400000
        316.14000000
        157.01700000
         79.74860000
         41.30240000
         21.66920000
         11.38390000
          5.88239000
          2.91469000
          1.41820000
          0.64315600
          0.16212600
          0.07574700
          0.03283300
  0.0000380000 -0.0000310000  0.0000070000 -0.0000030000  0.0000010000  0.0000010000  0.0000020000  0.0000000000
  0.0001010000 -0.0000840000  0.0000190000 -0.0000080000  0.0000020000  0.0000040000  0.0000060000  0.0000000000
  0.0002770000 -0.0002290000  0.0000510000 -0.0000210000  0.0000050000  0.0000110000  0.0000160000  0.0000000000
  0.0006270000 -0.0005200000  0.0001150000 -0.0000470000  0.0000120000  0.0000240000  0.0000350000  0.0000000000
  0.0013270000 -0.0011030000  0.0002450000 -0.0001000000  0.0000250000  0.0000510000  0.0000750000  0.0000000000
  0.0026660000 -0.0022200000  0.0004940000 -0.0002010000  0.0000510000  0.0001030000  0.0001510000  0.0000000000
  0.0052950000 -0.0044240000  0.0009900000 -0.0004030000  0.0001020000  0.0002090000  0.0003030000  0.0000000000
  0.0105500000 -0.0088620000  0.0019940000 -0.0008110000  0.0002060000  0.0004110000  0.0006090000  0.0000000000
  0.0213990000 -0.0181430000  0.0041330000 -0.0016800000  0.0004260000  0.0008800000  0.0012660000  0.0000000000
  0.0438700000 -0.0377710000  0.0087440000 -0.0035550000  0.0009030000  0.0017780000  0.0026640000  0.0000000000
  0.0881890000 -0.0782330000  0.0187720000 -0.0076130000  0.0019330000  0.0040400000  0.0057520000  0.0000000000
  0.1612280000 -0.1515500000  0.0385280000 -0.0156200000  0.0039720000  0.0076940000  0.0117020000  0.0000000000
  0.2336970000 -0.2484170000  0.0709410000 -0.0286400000  0.0072770000  0.0156030000  0.0217740000  0.0000000000
  0.2112000000 -0.2821950000  0.0945880000 -0.0383650000  0.0097830000  0.0176250000  0.0286790000  0.0000000000
  0.0981310000 -0.1138920000  0.0379940000 -0.0154230000  0.0039080000  0.0133050000  0.0126960000  0.0000000000
  0.1177200000  0.2668050000 -0.2101840000  0.0890860000 -0.0228670000 -0.0591740000 -0.0711980000  0.0000000000
  0.1899080000  0.4972710000 -0.5097240000  0.2364510000 -0.0615870000 -0.0994380000 -0.1893120000  0.0000000000
  0.0967030000  0.2581180000 -0.3292160000  0.1594410000 -0.0417860000 -0.1403710000 -0.1263150000  0.0000000000
  0.0244730000  0.0500270000  0.4337730000 -0.2656280000  0.0719530000  0.2582880000  0.2556980000  0.0000000000
  0.0181770000  0.0264220000  0.7551420000 -0.7776520000  0.2314620000  0.3199000000  0.8089060000  0.0000000000
  0.0045120000  0.0060790000  0.1893900000 -0.0921080000  0.0153060000  0.3668280000  0.1081360000  0.0000000000
 -0.0000340000 -0.0000090000  0.0046220000  0.8341870000 -0.3249280000 -1.6365500000 -3.2497450000  0.0000000000
  0.0000380000  0.0000170000  0.0031330000  0.5096530000 -0.3116880000  0.5083560000  3.3999180000  0.0000000000
 -0.0000120000 -0.0000070000 -0.0001840000  0.0323300000  0.2542590000  1.7709410000 -0.8439920000  0.0000000000
  0.0000080000  0.0000040000  0.0001700000 -0.0101750000  0.6130390000 -0.8830610000 -1.3578290000  0.0000000000
  0.0000000000  0.0000000000  0.0000000000  0.0000000000  0.0000000000  0.0000000000  0.0000000000  1.0000000000
* p-type functions
   21    7
    1789180.00000000
     299329.00000000
      66902.00000000
      18783.60000000
       6293.75000000
       2413.20000000
       1023.64000000
        467.71300000
        225.48900000
        112.92200000
         58.05280000
         30.36560000
         16.04500000
          8.50889000
          4.49783000
          2.35025000
          1.16611000
          0.55489700
          0.20851000
          0.08431500
          0.03318700
  0.0000160000 -0.0000070000  0.0000030000 -0.0000010000 -0.0000010000 -0.0000020000  0.0000000000
  0.0000550000 -0.0000240000  0.0000090000 -0.0000020000 -0.0000050000 -0.0000070000  0.0000000000
  0.0002010000 -0.0000870000  0.0000340000 -0.0000080000 -0.0000170000 -0.0000250000  0.0000000000
  0.0007020000 -0.0003030000  0.0001200000 -0.0000290000 -0.0000610000 -0.0000880000  0.0000000000
  0.0024310000 -0.0010540000  0.0004190000 -0.0001010000 -0.0002120000 -0.0003100000  0.0000000000
  0.0081640000 -0.0035630000  0.0014180000 -0.0003430000 -0.0007110000 -0.0010370000  0.0000000000
  0.0255500000 -0.0112890000  0.0045040000 -0.0010910000 -0.0022860000 -0.0033390000  0.0000000000
  0.0713070000 -0.0322750000  0.0129120000 -0.0031190000 -0.0064660000 -0.0094370000  0.0000000000
  0.1658860000 -0.0781140000  0.0314570000 -0.0076350000 -0.0160240000 -0.0234360000  0.0000000000
  0.2965360000 -0.1474240000  0.0598250000 -0.0144670000 -0.0298970000 -0.0436950000  0.0000000000
  0.3536860000 -0.1817680000  0.0743730000 -0.0181630000 -0.0386350000 -0.0570030000  0.0000000000
  0.2181360000 -0.0333360000  0.0052590000 -0.0007540000  0.0001520000  0.0013980000  0.0000000000
  0.0479290000  0.2940170000 -0.1540920000  0.0381890000  0.0777120000  0.1211760000  0.0000000000
 -0.0047840000  0.5046260000 -0.3005170000  0.0778260000  0.1689660000  0.2485120000  0.0000000000
 -0.0047910000  0.2878520000 -0.1366150000  0.0306690000  0.0607940000  0.1276570000  0.0000000000
 -0.0006970000  0.0416890000  0.3543360000 -0.1073350000 -0.2409540000 -0.5961590000  0.0000000000
  0.0000100000  0.0001300000  0.5418340000 -0.1913910000 -0.5057780000 -0.8149230000  0.0000000000
  0.0000700000 -0.0019180000  0.2883550000 -0.0731510000  0.1936520000  1.5239800000  0.0000000000
 -0.0000020000  0.0000030000  0.0365610000  0.2904240000  0.7150110000  0.0450920000  0.0000000000
  0.0000030000 -0.0000710000 -0.0031140000  0.5689310000  0.2874470000 -0.8914620000  0.0000000000
  0.0000000000  0.0000000000  0.0000000000  0.0000000000  0.0000000000  0.0000000000  1.0000000000
* d-type functions
   14    5
       2997.74000000
        844.36600000
        311.02700000
        134.35800000
         63.47280000
         31.48090000
         16.03900000
          8.28702000
          4.28206000
          2.14418000
          1.03093000
          0.47347900
          0.20500200
          0.08099300
  0.0001490000 -0.0000460000  0.0000480000 -0.0000680000  0.0000000000
  0.0013050000 -0.0004060000  0.0004230000 -0.0005980000  0.0000000000
  0.0078450000 -0.0024450000  0.0025630000 -0.0036080000  0.0000000000
  0.0320110000 -0.0100510000  0.0105060000 -0.0149140000  0.0000000000
  0.0970150000 -0.0307790000  0.0324630000 -0.0461640000  0.0000000000
  0.2161310000 -0.0692950000  0.0730710000 -0.1056720000  0.0000000000
  0.3321270000 -0.1029380000  0.1066220000 -0.1426130000  0.0000000000
  0.3383070000 -0.0931070000  0.0845210000 -0.0885790000  0.0000000000
  0.1815710000  0.0412880000 -0.0679160000  0.1635420000  0.0000000000
  0.0380030000  0.2637390000 -0.3669810000  0.6958060000  0.0000000000
  0.0022880000  0.3806010000 -0.3563970000 -0.1681640000  0.0000000000
  0.0005860000  0.3321510000  0.1955400000 -0.8831910000  0.0000000000
  0.0001450000  0.1880590000  0.5516610000  0.2342950000  0.0000000000
  0.0000000000  0.0000000000  0.0000000000  0.0000000000  1.0000000000
* f-type functions
    2    2
          1.94430000
          0.58090000
  1.0000000000  0.0000000000
  0.0000000000  1.0000000000
* g-type functions
    1    1
          1.31870000
  1.0000000000
