************************************************************************
* This file is part of OpenMolcas.                                     *
*                                                                      *
* OpenMolcas is free software; you can redistribute it and/or modify   *
* it under the terms of the GNU Lesser General Public License, v. 2.1. *
* OpenMolcas is distributed in the hope that it will be useful, but it *
* is provided "as is" and without any express or implied warranties.   *
* For more details see the full text of the license in the file        *
* LICENSE or in <http://www.gnu.org/licenses/>.                        *
************************************************************************

#Hamiltonian RCP
#Nucleus UNK
#Contraction RAF
#AllElectron NAE

********************************************************************************
* See the file AIMP.README                                                     *
********************************************************************************

********************************************************************************
* C.1. Cowan-Griffin-relativistic core AIMPs: CG-AIMP
********************************************************************************
*                                                                  recommended
*                                                                  contraction
*       C.1.1. Main Group Elements
*         C.1.1.1. Alkaline Elements
*           /Li.CG-AIMP.Barandiaran.5s1p.1s1p.ECP.1el.                2s1p
*           /Na.CG-AIMP.Barandiaran.7s6p.1s2p.ECP.7el.                2s3p
*           /K.CG-AIMP.Barandiaran.9s7p.1s2p.ECP.7el.                 2s3p
*           /Rb.CG-AIMP.Barandiaran.11s9p6d.1s2p1d.ECP.7el.           2s3p1d
*           /Cs.CG-AIMP.Barandiaran.13s11p8d.1s2p1d.ECP.7el.          3s3p1d
*         C.1.1.2. Alkaline Earth Elements
*           /Be.CG-AIMP.Barandiaran.5s1p.1s1p.ECP.2el.                2s1p
*           /Mg.CG-AIMP.Barandiaran.7s6p1d.1s2p1d.ECP.8el.            2s3p1d
*           /Ca.CG-AIMP.Barandiaran.9s7p5d.1s2p3d.ECP.8el.            2s3p3d
*           /Sr.CG-AIMP.Barandiaran.11s9p6d.1s2p1d.ECP.8el.           3s3p3d
*           /Ba.CG-AIMP.Barandiaran.13s11p8d.1s2p1d.ECP.8el.          3s3p3d
*         C.1.1.3. Group IIIA Elements
*           /B.CG-AIMP.Barandiaran.5s5p1d.1s1p1d.ECP.3el.             2s3p1d
*           /Al.CG-AIMP.Barandiaran.7s6p1d.1s1p1d.ECP.3el.            2s3p1d
*           /Ga.CG-AIMP.Barandiaran.9s8p4d.1s1p2d.ECP.3el.            3s3p2d
*           /In.CG-AIMP.Barandiaran.11s10p7d.1s1p2d.ECP.13el.         3s3p3d
*           /Tl.CG-AIMP.Barandiaran.13s12p8d5f.1s1p2d1f.ECP.13el.     3s4p3d2f
*         C.1.1.4. Group IVA Elements
*           /C.CG-AIMP.Barandiaran.5s5p1d.1s1p1d.ECP.4el.             2s3p1d
*           /Si.CG-AIMP.Barandiaran.7s6p1d.1s1p1d.ECP.4el.            2s3p1d
*           /Ge.CG-AIMP.Barandiaran.9s8p4d.1s1p2d.ECP.4el.            3s3p2d
*           /Sn.CG-AIMP.Barandiaran.11s10p7d.1s1p2d.ECP.14el.         3s3p3d
*           /Pb.CG-AIMP.Barandiaran.13s12p8d5f.1s1p2d1f.ECP.14el.     3s4p3d2f
*         C.1.1.5. Group VA Elements
*           /N.CG-AIMP.Barandiaran.5s5p1d.1s1p1d.ECP.5el.             2s3p1d
*           /P.CG-AIMP.Barandiaran.7s6p1d.1s1p1d.ECP.5el.             2s3p1d
*           /As.CG-AIMP.Barandiaran.9s8p4d.1s1p2d.ECP.5el.            3s3p2d
*           /Sb.CG-AIMP.Barandiaran.11s10p7d.1s1p2d.ECP.15el.         3s3p3d
*           /Bi.CG-AIMP.Barandiaran.13s12p8d5f.1s1p2d1f.ECP.15el.     3s4p3d2f
*         C.1.1.6. Group VIA Elements (Calcogens)
*           /O.CG-AIMP.Barandiaran.5s6p1d.1s2p1d.ECP.6el.             2s4p1d
*           /S.CG-AIMP.Barandiaran.7s6p1d.1s1p1d.ECP.6el.             2s3p1d
*           /Se.CG-AIMP.Barandiaran.9s8p4d.1s1p2d.ECP.6el.            3s3p2d
*           /Te.CG-AIMP.Barandiaran.11s10p7d.1s1p2d.ECP.16el.         3s3p3d
*           /Po.CG-AIMP.Barandiaran.13s12p8d5f.1s1p2d1f.ECP.16el.     3s4p3d2f
*         C.1.1.7. Group VIIA Elements (Halogens)
*           /F.CG-AIMP.Barandiaran.5s6p1d.1s2p1d.ECP.7el.             2s4p1d
*           /Cl.CG-AIMP.Barandiaran.7s7p1d.1s2p1d.ECP.7el.            2s4p1d
*           /Br.CG-AIMP.Barandiaran.9s8p4d.1s1p2d.ECP.7el.            3s4p2d
*           /I.CG-AIMP.Barandiaran.11s10p7d.1s1p2d.ECP.17el.          3s4p3d
*           /At.CG-AIMP.Barandiaran.13s12p8d5f.1s1p2d1f.ECP.17el.     3s4p3d2f
*         C.1.1.8. Group 0 Elements (Noble Gases)
*           /Ne.CG-AIMP.Barandiaran.5s5p1d.1s1p1d.ECP.8el.            2s3p1d
*           /Ar.CG-AIMP.Barandiaran.7s6p1d.1s1p1d.ECP.8el.            2s3p1d
*           /Kr.CG-AIMP.Barandiaran.9s8p4d.1s1p2d.ECP.8el.            3s3p2d
*           /Xe.CG-AIMP.Barandiaran.11s10p7d.1s1p2d.ECP.18el.         3s3p3d
*           /Rn.CG-AIMP.Barandiaran.13s12p8d5f.1s1p2d1f.ECP.18el.     3s4p3d2f
*       C.1.2. Transition Metal Elements
*         C.1.2.1. First Series Transition Metal Elements (core [Mg])
*           /Sc.CG-AIMP.Barandiaran.9s6p6d.1s2p2d.ECP.9el.            3s3p4d
*           /Ti.CG-AIMP.Barandiaran.9s6p6d.1s2p2d.ECP.10el.           3s3p4d
*           /V.CG-AIMP.Barandiaran.9s6p6d.1s2p2d.ECP.11el.            3s3p4d
*           /Cr.CG-AIMP.Barandiaran.9s6p6d.1s2p2d.ECP.12el.           3s3p4d
*           /Mn.CG-AIMP.Barandiaran.9s6p6d.1s2p2d.ECP.13el.           3s3p4d
*           /Fe.CG-AIMP.Barandiaran.9s6p6d.1s2p2d.ECP.14el.           3s3p4d
*           /Co.CG-AIMP.Barandiaran.9s6p6d.1s2p2d.ECP.15el.           3s3p4d
*           /Ni.CG-AIMP.Barandiaran.9s6p6d.1s2p2d.ECP.16el.           3s3p4d
*           /Cu.CG-AIMP.Barandiaran.9s6p6d.1s2p2d.ECP.17el.           3s3p4d
*           /Zn.CG-AIMP.Barandiaran.9s6p5d.1s2p1d.ECP.18el.           3s3p3d
*           /Sc.CG-AIMP.Barandiaran.9s6p6d3f.1s2p2d1f.ECP.9el.        3s3p4d1f
*           /Ti.CG-AIMP.Barandiaran.9s6p6d3f.1s2p2d1f.ECP.10el.       3s3p4d1f
*           /V.CG-AIMP.Barandiaran.9s6p6d3f.1s2p2d1f.ECP.11el.        3s3p4d1f
*           /Cr.CG-AIMP.Barandiaran.9s6p6d3f.1s2p2d1f.ECP.12el.       3s3p4d1f
*           /Mn.CG-AIMP.Barandiaran.9s6p6d3f.1s2p2d1f.ECP.13el.       3s3p4d1f
*           /Fe.CG-AIMP.Barandiaran.9s6p6d3f.1s2p2d1f.ECP.14el.       3s3p4d1f
*           /Co.CG-AIMP.Barandiaran.9s6p6d3f.1s2p2d1f.ECP.15el.       3s3p4d1f
*           /Ni.CG-AIMP.Barandiaran.9s6p6d3f.1s2p2d1f.ECP.16el.       3s3p4d1f
*           /Cu.CG-AIMP.Barandiaran.9s6p6d3f.1s2p2d1f.ECP.17el.       3s3p4d1f
*           /Zn.CG-AIMP.Barandiaran.9s6p5d3f.1s2p1d1f.ECP.18el.       3s3p3d1f
*         C.1.2.2. Second Series Transition Metal Elements (core [Zn])
*           /Y.CG-AIMP.Barandiaran.11s8p7d.1s2p2d.ECP.9el.            3s3p4d
*           /Zr.CG-AIMP.Barandiaran.11s8p7d.1s2p2d.ECP.10el.          3s3p4d
*           /Nb.CG-AIMP.Barandiaran.11s8p7d.1s2p2d.ECP.11el.          3s3p4d
*           /Mo.CG-AIMP.Barandiaran.11s8p7d.1s2p2d.ECP.12el.          3s3p4d
*           /Tc.CG-AIMP.Barandiaran.11s8p7d.1s2p2d.ECP.13el.          3s3p4d
*           /Ru.CG-AIMP.Barandiaran.11s8p7d.1s2p2d.ECP.14el.          3s3p4d
*           /Rh.CG-AIMP.Barandiaran.11s8p7d.1s2p2d.ECP.15el.          3s3p4d
*           /Pd.CG-AIMP.Barandiaran.11s8p7d.1s2p2d.ECP.16el.          3s3p4d
*           /Ag.CG-AIMP.Barandiaran.11s8p7d.1s2p2d.ECP.17el.          3s3p4d
*           /Cd.CG-AIMP.Barandiaran.11s8p6d.1s2p1d.ECP.18el.          3s3p3d
*           /Y.CG-AIMP.Barandiaran.11s8p7d3f.1s2p2d1f.ECP.9el.        3s3p4d1f
*           /Zr.CG-AIMP.Barandiaran.11s8p7d3f.1s2p2d1f.ECP.10el.      3s3p4d1f
*           /Nb.CG-AIMP.Barandiaran.11s8p7d3f.1s2p2d1f.ECP.11el.      3s3p4d1f
*           /Mo.CG-AIMP.Barandiaran.11s8p7d3f.1s2p2d1f.ECP.12el.      3s3p4d1f
*           /Tc.CG-AIMP.Barandiaran.11s8p7d3f.1s2p2d1f.ECP.13el.      3s3p4d1f
*           /Ru.CG-AIMP.Barandiaran.11s8p7d3f.1s2p2d1f.ECP.14el.      3s3p4d1f
*           /Rh.CG-AIMP.Barandiaran.11s8p7d3f.1s2p2d1f.ECP.15el.      3s3p4d1f
*           /Pd.CG-AIMP.Barandiaran.11s8p7d3f.1s2p2d1f.ECP.16el.      3s3p4d1f
*           /Ag.CG-AIMP.Barandiaran.11s8p7d3f.1s2p2d1f.ECP.17el.      3s3p4d1f
*         C.1.2.3. Lanthanum and Third Series Transition Metal Elements
*           /La.CG-AIMP.Casarrubios.13s10p8d.1s2p2d.ECP.9el.          3s3p3d
*           /Hf.CG-AIMP.Casarrubios.13s10p9d5f.1s2p2d1f.ECP.10el.     3s3p4d2f
*           /Ta.CG-AIMP.Casarrubios.13s10p9d5f.1s2p2d1f.ECP.11el.     3s3p4d2f
*           /W.CG-AIMP.Casarrubios.13s10p9d5f.1s2p2d1f.ECP.12el.      3s3p4d2f
*           /Re.CG-AIMP.Casarrubios.13s10p9d5f.1s2p2d1f.ECP.13el.     3s3p4d2f
*           /Os.CG-AIMP.Casarrubios.13s10p9d5f.1s2p2d1f.ECP.14el.     3s3p4d2f
*           /Ir.CG-AIMP.Casarrubios.13s10p9d5f.1s2p2d1f.ECP.15el.     3s3p4d2f
*           /Pt.CG-AIMP.Casarrubios.13s10p9d5f.1s2p2d1f.ECP.16el.     3s3p4d2f
*           /Pt.CG-AIMP.Casarrubios.13s10p9d5f.1s2p2d1f.ECP.16el-ave. 3s3p4d2f
*           /Au.CG-AIMP.Casarrubios.13s10p9d5f.1s2p2d1f.ECP.17el.     3s3p4d2f
*           /Hg.CG-AIMP.Casarrubios.13s10p9d5f.1s2p2d1f.ECP.18el.     3s3p4d2f
*       C.1.3. f-Elements
*         C.1.3.1.a. Lanthanide Elements (core [Kr,4d])
*           /Ce.CG-AIMP.Diaz-Megias.14s10p9d8f3g.2s1p1d1f1g.ECP.12el. 6s5p5d4f1g
*           /Pr.CG-AIMP.Seijo.14s10p9d8f3g.2s1p1d1f1g.ECP.13el.       6s5p5d4f1g
*           /Nd.CG-AIMP.Seijo.14s10p9d8f3g.2s1p1d1f1g.ECP.14el.       6s5p5d4f1g
*           /Pm.CG-AIMP.Seijo.14s10p9d8f3g.2s1p1d1f1g.ECP.15el.       6s5p5d4f1g
*           /Sm.CG-AIMP.Seijo.14s10p9d8f3g.2s1p1d1f1g.ECP.16el.       6s5p5d4f1g
*           /Eu.CG-AIMP.Seijo.14s10p9d8f3g.2s1p1d1f1g.ECP.17el.       6s5p5d4f1g
*           /Gd.CG-AIMP.Seijo.14s10p9d8f3g.2s1p1d1f1g.ECP.18el.       6s5p5d4f1g
*           /Tb.CG-AIMP.Seijo.14s10p9d8f3g.2s1p1d1f1g.ECP.19el.       6s5p5d4f1g
*           /Dy.CG-AIMP.Seijo.14s10p9d8f3g.2s1p1d1f1g.ECP.20el.       6s5p5d4f1g
*           /Ho.CG-AIMP.Seijo.14s10p9d8f3g.2s1p1d1f1g.ECP.21el.       6s5p5d4f1g
*           /Er.CG-AIMP.Seijo.14s10p9d8f3g.2s1p1d1f1g.ECP.22el.       6s5p5d4f1g
*           /Tm.CG-AIMP.Seijo.14s10p9d8f3g.2s1p1d1f1g.ECP.23el.       6s5p5d4f1g
*           /Yb.CG-AIMP.Seijo.14s10p9d8f3g.2s1p1d1f1g.ECP.24el.       6s5p5d4f1g
*           /Lu.CG-AIMP.Seijo.14s10p9d8f3g.2s1p1d1f1g.ECP.25el.       6s5p5d4f1g
*         C.1.3.1.b. Lanthanide Elements (core [Kr])
*           /Ce.CG-AIMP.Seijo.14s10p10d8f3g.2s1p2d1f1g.ECP.22el.      6s5p6d4f1g
*           /Pr.CG-AIMP.Seijo.14s10p10d8f3g.2s1p2d1f1g.ECP.23el.      6s5p6d4f1g
*           /Nd.CG-AIMP.Seijo.14s10p10d8f3g.2s1p2d1f1g.ECP.24el.      6s5p6d4f1g
*           /Pm.CG-AIMP.Seijo.14s10p10d8f3g.2s1p2d1f1g.ECP.25el.      6s5p6d4f1g
*           /Sm.CG-AIMP.Seijo.14s10p10d8f3g.2s1p2d1f1g.ECP.26el.      6s5p6d4f1g
*           /Eu.CG-AIMP.Seijo.14s10p10d8f3g.2s1p2d1f1g.ECP.27el.      6s5p6d4f1g
*           /Gd.CG-AIMP.Seijo.14s10p10d8f3g.2s1p2d1f1g.ECP.28el.      6s5p6d4f1g
*           /Tb.CG-AIMP.Seijo.14s10p10d8f3g.2s1p2d1f1g.ECP.29el.      6s5p6d4f1g
*           /Dy.CG-AIMP.Seijo.14s10p10d8f3g.2s1p2d1f1g.ECP.30el.      6s5p6d4f1g
*           /Ho.CG-AIMP.Seijo.14s10p10d8f3g.2s1p2d1f1g.ECP.31el.      6s5p6d4f1g
*           /Er.CG-AIMP.Seijo.14s10p10d8f3g.2s1p2d1f1g.ECP.32el.      6s5p6d4f1g
*           /Tm.CG-AIMP.Seijo.14s10p10d8f3g.2s1p2d1f1g.ECP.33el.      6s5p6d4f1g
*           /Yb.CG-AIMP.Seijo.14s10p10d8f3g.2s1p2d1f1g.ECP.34el.      6s5p6d4f1g
*           /Lu.CG-AIMP.Seijo.14s10p10d8f3g.2s1p2d1f1g.ECP.35el.      6s5p6d4f1g
*         C.1.3.1.c. Lanthanide Elements (core [M])
*           /Ce.CG-AIMP.Seijo.14s10p10d8f3g.3s2p2d1f1g.ECP.30el.      7s6p6d4f1g
*           /Pr.CG-AIMP.Seijo.14s10p10d8f3g.3s2p2d1f1g.ECP.31el.      7s6p6d4f1g
*           /Nd.CG-AIMP.Seijo.14s10p10d8f3g.3s2p2d1f1g.ECP.32el.      7s6p6d4f1g
*           /Pm.CG-AIMP.Seijo.14s10p10d8f3g.3s2p2d1f1g.ECP.33el.      7s6p6d4f1g
*           /Sm.CG-AIMP.Seijo.14s10p10d8f3g.3s2p2d1f1g.ECP.34el.      7s6p6d4f1g
*           /Eu.CG-AIMP.Seijo.14s10p10d8f3g.3s2p2d1f1g.ECP.35el.      7s6p6d4f1g
*           /Gd.CG-AIMP.Seijo.14s10p10d8f3g.3s2p2d1f1g.ECP.36el.      7s6p6d4f1g
*           /Tb.CG-AIMP.Seijo.14s10p10d8f3g.3s2p2d1f1g.ECP.37el.      7s6p6d4f1g
*           /Dy.CG-AIMP.Seijo.14s10p10d8f3g.3s2p2d1f1g.ECP.38el.      7s6p6d4f1g
*           /Ho.CG-AIMP.Seijo.14s10p10d8f3g.3s2p2d1f1g.ECP.39el.      7s6p6d4f1g
*           /Er.CG-AIMP.Seijo.14s10p10d8f3g.3s2p2d1f1g.ECP.40el.      7s6p6d4f1g
*           /Tm.CG-AIMP.Seijo.14s10p10d8f3g.3s2p2d1f1g.ECP.41el.      7s6p6d4f1g
*           /Yb.CG-AIMP.Seijo.14s10p10d8f3g.3s2p2d1f1g.ECP.42el.      7s6p6d4f1g
*           /Lu.CG-AIMP.Seijo.14s10p10d8f3g.3s2p2d1f1g.ECP.43el.      7s6p6d4f1g
*         C.1.3.2.a. Actinide Elements (core [Xe,4f,5d])
*           /Th.CG-AIMP.Seijo.14s10p11d9f3g.2s1p1d1f1g.ECP.12el.      6s5p5d4f1g
*           /Pa.CG-AIMP.Seijo.14s10p11d9f3g.2s1p1d1f1g.ECP.13el.      6s5p5d4f1g
*           /U.CG-AIMP.Seijo.14s10p11d9f3g.2s1p1d1f1g.ECP.14el.       6s5p5d4f1g
*           /Np.CG-AIMP.Seijo.14s10p11d9f3g.2s1p1d1f1g.ECP.15el.      6s5p5d4f1g
*           /Pu.CG-AIMP.Seijo.14s10p11d9f3g.2s1p1d1f1g.ECP.16el.      6s5p5d4f1g
*           /Am.CG-AIMP.Seijo.14s10p11d9f3g.2s1p1d1f1g.ECP.17el.      6s5p5d4f1g
*           /Cm.CG-AIMP.Seijo.14s10p11d9f3g.2s1p1d1f1g.ECP.18el.      6s5p5d4f1g
*           /Bk.CG-AIMP.Seijo.14s10p11d9f3g.2s1p1d1f1g.ECP.19el.      6s5p5d4f1g
*           /Cf.CG-AIMP.Seijo.14s10p11d9f3g.2s1p1d1f1g.ECP.20el.      6s5p5d4f1g
*           /Es.CG-AIMP.Seijo.14s10p11d9f3g.2s1p1d1f1g.ECP.21el.      6s5p5d4f1g
*           /Fm.CG-AIMP.Seijo.14s10p11d9f3g.2s1p1d1f1g.ECP.22el.      6s5p5d4f1g
*           /Md.CG-AIMP.Seijo.14s10p11d9f3g.2s1p1d1f1g.ECP.23el.      6s5p5d4f1g
*           /No.CG-AIMP.Seijo.14s10p11d9f3g.2s1p1d1f1g.ECP.24el.      6s5p5d4f1g
*           /Lr.CG-AIMP.Seijo.14s10p11d9f3g.2s1p1d1f1g.ECP.25el.      6s5p5d4f1g
*         C.1.3.2.b. Actinide Elements (core [Xe,4f])
*           /Th.CG-AIMP.Seijo.14s10p12d9f3g.2s1p2d1f1g.ECP.22el.      6s5p6d4f1g
*           /Pa.CG-AIMP.Seijo.14s10p12d9f3g.2s1p2d1f1g.ECP.23el.      6s5p6d4f1g
*           /U.CG-AIMP.Seijo.14s10p12d9f3g.2s1p2d1f1g.ECP.24el.       6s5p6d4f1g
*           /Np.CG-AIMP.Seijo.14s10p12d9f3g.2s1p2d1f1g.ECP.25el.      6s5p6d4f1g
*           /Pu.CG-AIMP.Seijo.14s10p12d9f3g.2s1p2d1f1g.ECP.26el.      6s5p6d4f1g
*           /Am.CG-AIMP.Seijo.14s10p12d9f3g.2s1p2d1f1g.ECP.27el.      6s5p6d4f1g
*           /Cm.CG-AIMP.Seijo.14s10p12d9f3g.2s1p2d1f1g.ECP.28el.      6s5p6d4f1g
*           /Bk.CG-AIMP.Seijo.14s10p12d9f3g.2s1p2d1f1g.ECP.29el.      6s5p6d4f1g
*           /Cf.CG-AIMP.Seijo.14s10p12d9f3g.2s1p2d1f1g.ECP.30el.      6s5p6d4f1g
*           /Es.CG-AIMP.Seijo.14s10p12d9f3g.2s1p2d1f1g.ECP.31el.      6s5p6d4f1g
*           /Fm.CG-AIMP.Seijo.14s10p12d9f3g.2s1p2d1f1g.ECP.32el.      6s5p6d4f1g
*           /Md.CG-AIMP.Seijo.14s10p12d9f3g.2s1p2d1f1g.ECP.33el.      6s5p6d4f1g
*           /No.CG-AIMP.Seijo.14s10p12d9f3g.2s1p2d1f1g.ECP.34el.      6s5p6d4f1g
*           /Lr.CG-AIMP.Seijo.14s10p12d9f3g.2s1p2d1f1g.ECP.35el.      6s5p6d4f1g
********************************************************************************
*
* - Except when indicated otherwise, polarization functions are taken from
*   S. Huzinaga (Editor), J. Andzelm, M. Klobukowski, E. Radzio-Andzelm, Y. Sakai, H. Tatewaki.
*   "Gaussian Basis Sets for Molecular Calculations" (Elsevier, Amsterdam, 1984).
*
********************************************************************************
*    C.1.1. Main Group Elements
********************************************************************************

********************************************************************************
*         C.1.1.1. Alkaline Elements
********************************************************************************

/Li.CG-AIMP.Barandiaran.5s1p.1s1p.ECP.1el.
Z. Barandiaran, L. Seijo. Can. J. Chem. 70 (1992) 409-415. doi:10.1139/v92-059
LITHIUM (5s,1p) -> [1s,1p]
********************************************************************************
*relativistic     core[He] val[2s]     (51/1*)=2s1p recommended
*LIQR-S(5/1)                   (51/1) recomended
********************************************************************************
     1.0   1
* s-type functions
    5    1
         30.37085710
          4.48523425
       8652.54334e-4
       6307.41849e-5
       2434.40834e-5
 -0.013403400500
 -0.075575864900
 -0.190394563000
  0.684382478000
  0.390204196000
* p-type functions
    1    1
          0.07600000
  1.000000000000
********************************************************************************
* Core AIMP: LIQR-1S
*
* Local Potential Parameters : (ECP convention)
*                              A(AIMP)=-Zeff*A(ECP)
********************************************************************************
M1
  8
  1.4840000000e5  1.0640000000e4  1.4430000000e3  2.6220000000e2 58.700000000000 15.820000000000  4.974000000000  1.732000000000
  0.015592682000  0.032292171000  0.073433474000  0.153493540000  0.306600780000  0.555795220000  0.645499070000  0.217293050000
M2
  0
COREREP
 1.0
PROJOP
    0
    6    1
  4.955993800000
        221.00000000
         38.02000000
         10.09000000
          3.23400000
          1.14600000
          0.42890000
  0.007829273100
  0.045303579000
  0.158005420000
  0.353248220000
  0.436176680000
  0.161478360000
Spectral Representation Operator
Valence primitive basis
Exchange
1stOrder Relativistic Correction
LIQR-1S
End of Spectral Representation Operator

/Na.CG-AIMP.Barandiaran.7s6p.1s2p.ECP.7el.
Z. Barandiaran, L. Seijo. Can. J. Chem. 70 (1992) 409-415. doi:10.1139/v92-059
SODIUM (7s,6p) -> [1s,2p]
********************************************************************************
*relativistic     core[Be] val[2p,3s]     (71/511*)=2s3p recommended
*NAQR-PS(7/51)
********************************************************************************
     7.0   1
* s-type functions
    7    1
        640.95521400
         95.79399140
         21.05670040
          1.71801775
       5093.56676e-4
       5872.45794e-5
       2335.69713e-5
  0.002058068120
  0.013597902300
  0.039341807500
 -0.125480352000
 -0.194733073000
  0.637417525000
  0.461033876000
* p-type functions
    6    2
         76.24460880
         17.42422380
          5.21691534
          1.66731665
       5135.85108e-4
          0.06100000
  0.015296254800  0.000000000000
  0.099086042700  0.000000000000
  0.311441145000  0.000000000000
  0.493636650000  0.000000000000
  0.325102587000  0.000000000000
  0.000000000000  1.000000000000
********************************************************************************
* Core AIMP: NAQR-2S
*
* Local Potential Parameters : (ECP convention)
*                              A(AIMP)=-Zeff*A(ECP)
********************************************************************************
M1
 10
  2.4080000000e5  2.7250000000e4  5.0020000000e3  1.1851000000e3  3.4420000000e2  1.1506000000e2 41.130000000000  9.040000000000  3.445000000000  1.424000000000
  0.007309110143  0.011252385714  0.022775591429  0.041713367143  0.073802637143  0.105501388571  0.074693505714  0.075286251429  0.124171395714  0.034922938571
M2
  0
COREREP
 1.0
PROJOP
    0
    8    2
 81.094753000000  5.610622000000
       1461.00000000
        268.10000000
         75.49000000
         26.06000000
          9.98000000
          2.75000000
          1.07700000
          0.42300000
  0.020217763000  0.004836321000
  0.100762990000  0.026543056000
  0.291326630000  0.079898111000
  0.453250580000  0.176061270000
  0.268682470000  0.136272240000
  0.022241853000 -0.342088420000
 -0.004158291100 -0.591866250000
  0.001333858500 -0.215717650000
Spectral Representation Operator
Valence primitive basis
Exchange
1stOrder Relativistic Correction
NAQR-2S
End of Spectral Representation Operator

/K.CG-AIMP.Barandiaran.9s7p.1s2p.ECP.7el.
Z. Barandiaran, L. Seijo. Can. J. Chem. 70 (1992) 409-415. doi:10.1139/v92-059
POTASSIUM (9s,7p) -> [1s,2p]
********************************************************************************
*relativistic     core[Mg] val[3p,4s]     (91/611*)=2s3p recommended
*KQR-PS(9/61)
********************************************************************************
     7.0   1
* s-type functions
    9    1
       2013.16171000
        299.73785600
         66.98019730
          6.55335174
          3.42156635
       6874.97039e-4
       2449.21433e-4
       3941.87821e-5
       1698.98702e-5
 -0.001038228080
 -0.006884314010
 -0.020406943300
  0.066040876000
  0.061447358200
 -0.201753280000
 -0.263512742000
  0.672090263000
  0.465706258000
* p-type functions
    7    2
        126.61771200
         28.88193880
          8.34980269
          1.03000741
       4042.76055e-4
       1595.59833e-4
          0.03900000
 -0.017061864400  0.000000000000
 -0.096307631100  0.000000000000
 -0.208618293000  0.000000000000
  0.465866875000  0.000000000000
  0.499025679000  0.000000000000
  0.150293586000  0.000000000000
  0.000000000000  1.000000000000
********************************************************************************
* Core AIMP: KQR-3S
*
* Local Potential Parameters : (ECP convention)
*                              A(AIMP)=-Zeff*A(ECP)
********************************************************************************
M1
 11
  2.6800000000e5  3.0890000000e4  5.9660000000e3  1.4556000000e3  4.2550000000e2  1.3817000000e2 41.300000000000 16.072000000000  6.667000000000  1.644900000000  0.732170000000
  0.019215061429  0.028885224286  0.056560330000  0.105893171429  0.169312028571  0.184149571429  0.281210771429  0.483074342857  0.166108885714  0.166266000000  0.053610325714
M2
  0
COREREP
 1.0
PROJOP
    1
   10    3
  2.6841223000e2 29.213353000000  3.522445300000
       4645.00000000
        829.00000000
        229.50000000
         79.02000000
         30.84000000
          8.62200000
          3.53800000
          1.08500000
          0.51820000
          0.22120000
  0.020273327000  0.005710558700  0.001902326200
  0.101681840000  0.032077171000  0.010542130000
  0.298470800000  0.097593141000  0.032983185000
  0.452495270000  0.217020950000  0.074265408000
  0.261167900000  0.140834470000  0.053137372000
  0.022845896000 -0.508446430000 -0.240793860000
 -0.006621942100 -0.588567240000 -0.451585820000
  0.003139822400 -0.067481045000  0.270327760000
 -0.001902627600  0.015034550000  0.707105120000
  0.000616790990 -0.003633247900  0.251671240000
    8    1
 23.061728000000
        192.40000000
         48.78000000
         16.64000000
          6.42100000
          2.66300000
          1.03000000
          0.40700000
          0.15790000
  0.028338344000
  0.146295140000
  0.370334030000
  0.455394640000
  0.189539310000
  0.011793632000
  0.000277805700
 -0.000104475870
Spectral Representation Operator
Valence primitive basis
Exchange
1stOrder Relativistic Correction
KQR-3S
End of Spectral Representation Operator

/Rb.CG-AIMP.Barandiaran.11s9p6d.1s2p1d.ECP.7el.
Z. Barandiaran, L. Seijo. Can. J. Chem. 70 (1992) 409-415. doi:10.1139/v92-059
RUBIDIUM (11s9p6d) -> [1s2p1d]
********************************************************************************
*relativistic     core[Zn] val[4p,5s]     (11,1/811*/6o)=2s3p1d recommended
*
* - (6o) d orthogonality function is the 3d core orbital
*
*RBQR-PS(A1/81/6)
********************************************************************************
     7.0   2
* s-type functions
   11    1
      10154.88180000
       1385.33761000
        294.09564700
         29.34236590
         15.15822680
          5.50695549
          2.82069200
       5173.47145e-4
          0.19781594
       3544.27654e-5
       1553.59851e-5
  0.000470503012
  0.003250536850
  0.010494762400
 -0.041146426500
 -0.022850526500
  0.045875917500
  0.133107047000
 -0.245250021000
 -0.279126583000
  0.686498234000
  0.468779484000
* p-type functions
    9    2
        685.63227800
        157.28302600
         47.96303230
          6.80295850
          3.06376113
          0.83491603
       3608.69529e-4
       1438.74465e-4
          0.03400000
  0.005361643440  0.000000000000
  0.033995362600  0.000000000000
  0.084673550000  0.000000000000
 -0.205755459000  0.000000000000
 -0.195621803000  0.000000000000
  0.368835926000  0.000000000000
  0.564942258000  0.000000000000
  0.218642934000  0.000000000000
  0.000000000000  1.000000000000
* d-type functions
    6    1
        159.20000000
         47.79000000
         17.62000000
          6.98700000
          2.80900000
          1.06000000
  0.013946015000
  0.085850180000
  0.268549880000
  0.438837880000
  0.368847790000
  0.104641590000
********************************************************************************
* Core AIMP: RBQR-3D
*
* Local Potential Parameters : (ECP convention)
*                              A(AIMP)=-Zeff*A(ECP)
********************************************************************************
M1
 12
  3.2590000000e5  4.3730000000e4  9.4310000000e3  2.5240000000e3  7.7710000000e2  2.3490000000e2 86.960000000000 32.900000000000 11.130000000000  5.091000000000  1.437000000000
  0.621100000000
  0.045848824286  0.061797052857  0.116884460000  0.202075500000  0.272620000000  0.382055657143  0.703247528571  0.386323542857  1.119709128571  0.712753585714  0.212841171429
  0.069557831429
M2
  0
COREREP
 1.0
PROJOP
    2
   12    4
  1.1249520000e3  1.5510817000e2 25.127923000000  3.132700100000
      21340.00000000
       3532.00000000
        936.30000000
        315.10000000
        123.64000000
         39.43000000
         17.07000000
          5.50700000
          2.53900000
          0.84100000
          0.42800000
          0.18600000
  0.021065861000  0.006845774500  0.002853739900  0.000974208470
  0.102274340000  0.036370709000  0.014589882000  0.004898538400
  0.301930290000  0.113573610000  0.048271231000  0.016525193000
  0.456634930000  0.244861250000  0.103049740000  0.034826576000
  0.256225520000  0.144301770000  0.072841601000  0.025918287000
  0.021424456000 -0.531494920000 -0.364884720000 -0.135226390000
 -0.008033194100 -0.578807400000 -0.516849780000 -0.199844880000
  0.003021691200 -0.070039419000  0.569240170000  0.284561880000
 -0.000442908480  0.017014714000  0.681506410000  0.576381960000
  0.000914426700 -0.007627384700  0.064252181000 -0.233086480000
 -0.000954856800  0.004546873600 -0.013372752000 -0.763322950000
  0.000039891688 -0.001212189100  0.002706345000 -0.276314890000
   10    2
  1.3715698000e2 19.173817000000
        830.80000000
        209.40000000
         72.01000000
         28.56000000
         11.70000000
          5.13900000
          2.28600000
          0.82120000
          0.33590000
          0.13200000
  0.030823158000  0.012991573000
  0.163615720000  0.071633154000
  0.411310090000  0.194352810000
  0.445687080000  0.206671540000
  0.133848830000 -0.197454270000
 -0.000401286860 -0.574797310000
  0.002634989000 -0.350951260000
 -0.000948753600 -0.033342532000
  0.000706663260  0.003722425300
 -0.000099406195 -0.000937229130
    6    1
  9.290771600000
        159.20000000
         47.79000000
         17.62000000
          6.98700000
          2.80900000
          1.06000000
  0.013946015000
  0.085850180000
  0.268549880000
  0.438837880000
  0.368847790000
  0.104641590000
Spectral Representation Operator
Valence primitive basis
Exchange
1stOrder Relativistic Correction
RBQR-3D
End of Spectral Representation Operator

/Cs.CG-AIMP.Barandiaran.13s11p8d.1s2p1d.ECP.7el.
Z. Barandiaran, L. Seijo. Can. J. Chem. 70 (1992) 409-415. doi:10.1139/v92-059
CAESIUM (13s,11p,8d) -> [1s,2p,1d]
********************************************************************************
*relativistic     core[Cd] val[5p,6s]     (13,1,1/10,11*/8o)=3s3p1d recommended
*
* - (8o) d orthogonality function is the 4d core orbital
*
*CSQR-PS(A3/A01/8)
********************************************************************************
     7.0   2
* s-type functions
   13    1
      33271.63450000
       3972.51924000
        773.74781900
         69.94397510
         37.51714220
         13.53223390
          7.70166529
          3.56355417
          1.55790452
       5031.28814e-4
          0.18600207
       2674.56064e-5
       1199.65641e-5
 -0.000274038147
 -0.001914711580
 -0.006524116450
  0.030320373900
  0.009934508750
 -0.055691120700
 -0.083666511400
  0.096031783500
  0.204409035000
 -0.208369281000
 -0.399938980000
  0.812495004000
  0.342328395000
* p-type functions
   11    2
       1842.95799000
        414.97631400
        126.72033600
         18.14925200
          7.06174323
          4.11735035
          1.68259799
       8163.33325e-4
       3193.66528e-4
       1246.01745e-4
          0.02600000
 -0.002816245230  0.000000000000
 -0.018406046300  0.000000000000
 -0.049138483600  0.000000000000
  0.163273802000  0.000000000000
  0.121630592000  0.000000000000
 -0.306620039000  0.000000000000
 -0.373129394000  0.000000000000
  0.257129375000  0.000000000000
  0.680283968000  0.000000000000
  0.304439365000  0.000000000000
  0.000000000000  1.000000000000
* d-type functions
    8    1
        318.90000000
         98.00000000
         38.15000000
         16.32000000
          7.31800000
          3.27000000
          1.43700000
          0.57900000
  0.011677473000
  0.065751032000
  0.165085610000
  0.183125590000
 -0.125000410000
 -0.509803050000
 -0.430204990000
 -0.101530000000
********************************************************************************
* Core AIMP: CSQR-4D
*
* Local Potential Parameters : (ECP convention)
*                              A(AIMP)=-Zeff*A(ECP)
********************************************************************************
M1
 13
  3.2570000000e5  4.3280000000e4  9.4970000000e3  2.5600000000e3  7.1540000000e2  2.3690000000e2 82.060000000000 29.930000000000  9.054000000000  4.194000000000  1.723000000000
  0.643800000000  0.273400000000
  0.082355364286  0.112017545714  0.207448414286  0.321045042857  0.443537314286  0.853245071429  0.559739214286  1.780744000000  0.277259457143  1.585269714286  0.455462714286
  0.171704742857  0.007314216571
M2
  0
COREREP
 1.0
PROJOP
    2
   15    5
  2.6632041000e3  4.2543468000e2 91.683357000000 18.674223000000  2.619024200000
     118600.00000000
      17060.00000000
       4181.00000000
       1325.00000000
        490.70000000
        194.50000000
         87.45000000
         40.65000000
         15.96000000
          8.18400000
          3.29200000
          1.64700000
          0.31530000
          0.59690000
          0.14200000
  0.012621619000  0.004576402200  0.002051392200  0.000952253650  0.000361200150
  0.056924029000  0.021034047000  0.009653687400  0.004421885800  0.001646662400
  0.181773510000  0.071851583000  0.032600397000  0.015186207000  0.005768522800
  0.382362470000  0.174427350000  0.083021405000  0.038242470000  0.014232295000
  0.409335000000  0.255652440000  0.123950330000  0.059167248000  0.022758166000
  0.128929700000 -0.003818388500 -0.001276553800 -0.003372900800 -0.002344550200
 -0.010340961000 -0.572211930000 -0.474552940000 -0.243090480000 -0.091721669000
 -0.002241837400 -0.498848090000 -0.512312510000 -0.303153560000 -0.123136630000
 -0.000003993615 -0.067140784000  0.590297750000  0.515950270000  0.229041540000
  0.005652005300  0.015560511000  0.708418620000  0.846083320000  0.381581130000
 -0.001821302500 -0.005621987800  0.084815737000 -0.623995550000 -0.380026440000
 -0.001171755300  0.001974088600 -0.012332530000 -0.808692290000 -0.753721230000
  0.000679304950  0.001175125200 -0.002540714000  0.014262029000  0.822725370000
 -0.000262818470 -0.001458640000  0.004765545400 -0.075040308000  0.242293140000
  0.000115653460 -0.000120022060  0.000643242240 -0.002667787000  0.278135670000
   12    3
  3.8153347000e2 77.165124000000 13.823954000000
       2307.00000000
        571.40000000
        195.80000000
         77.88000000
         32.26000000
         14.73000000
          6.94000000
          3.16300000
          1.46300000
          0.54090000
          0.23150000
          0.09420000
  0.026545610000  0.012866802000  0.005892672300
  0.143160280000  0.072016856000  0.032349524000
  0.384533840000  0.208447810000  0.097511233000
  0.464836240000  0.250563360000  0.112228090000
  0.164887380000 -0.191279900000 -0.126314460000
 -0.004398349000 -0.635516960000 -0.469026030000
  0.004380702300 -0.295300080000 -0.051905326000
 -0.001962830000 -0.020386048000  0.673155180000
  0.002045358300 -0.000683111960  0.451813610000
 -0.000740559590  0.000175120150  0.040697238000
  0.000027926822 -0.000321349960 -0.004277866300
 -0.000156973110 -0.000006370323  0.001029175600
    8    2
 55.733731000000  6.508807200000
        318.90000000
         98.00000000
         38.15000000
         16.32000000
          7.31800000
          3.27000000
          1.43700000
          0.57900000
  0.027006570000  0.011677473000
  0.146438600000  0.065751032000
  0.371223660000  0.165085610000
  0.456437020000  0.183125590000
  0.206799840000 -0.125000410000
  0.020393308000 -0.509803050000
  0.000290417260 -0.430204990000
 -0.000249643630 -0.101530000000
Spectral Representation Operator
Valence primitive basis
Exchange
1stOrder Relativistic Correction
CSQR-4D
End of Spectral Representation Operator

********************************************************************************
*         C.1.1.2. Alkaline Earth Elements
********************************************************************************

/Be.CG-AIMP.Barandiaran.5s1p.1s1p.ECP.2el.
Z. Barandiaran, L. Seijo. Can. J. Chem. 70 (1992) 409-415. doi:10.1139/v92-059
BERYLLIUM (5s,1p) -> [1s,1p]
********************************************************************************
*relativistic     core[He] val[2s]     (51/1*)=2s1p recommended
*BEQR-S(5/1)
********************************************************************************
     2.0   1
* s-type functions
    5    1
         65.33347160
          9.75468347
          2.00605822
       1508.88628e-4
       5132.47995e-5
 -0.013105905200
 -0.078786664800
 -0.209306256000
  0.623874541000
  0.462382597000
* p-type functions
    1    1
          0.16400000
  1.000000000000
********************************************************************************
* Core AIMP: BEQR-1S
*
* Local Potential Parameters : (ECP convention)
*                              A(AIMP)=-Zeff*A(ECP)
********************************************************************************
M1
  8
  1.6440000000e5  1.3160000000e4  1.8940000000e3  3.6090000000e2 86.200000000000 24.960000000000  8.410000000000  3.120000000000
  0.009880457000  0.019210281000  0.042901060000  0.087450755000  0.167392045000  0.285949600000  0.299390155000  0.087825645000
M2
  0
COREREP
 1.0
PROJOP
    0
    6    1
  9.467060600000
        264.20000000
         48.83000000
         13.79000000
          4.73600000
          1.82400000
          0.73600000
  0.012720080000
  0.065289875000
  0.200380570000
  0.383441840000
  0.384956040000
  0.110604310000
Spectral Representation Operator
Valence primitive basis
Exchange
1stOrder Relativistic Correction
BEQR-1S
End of Spectral Representation Operator

/Mg.CG-AIMP.Barandiaran.7s6p1d.1s2p1d.ECP.8el.
Z. Barandiaran, L. Seijo. Can. J. Chem. 70 (1992) 409-415. doi:10.1139/v92-059
MAGNESIUM (7s,6p,1d) -> [1s,2p,1d]
********************************************************************************
*relativistic     core[Be] val[2p,3s]     (71/511*/1*)=2s3p1d recommended
*
* - d polarization function for Mg(++) included
*
*MGQR-PS(7/51/1)
********************************************************************************
     8.0   2
* s-type functions
    7    1
        749.49054300
        112.70758100
         25.03598410
          2.21520780
       7919.21126e-4
          0.10828597
       3934.09899e-5
  0.002822380390
  0.018463723200
  0.052807826000
 -0.156159185000
 -0.231442398000
  0.617695612000
  0.504658672000
* p-type functions
    6    2
         97.67521490
         22.46622510
          6.80024843
          2.22176717
       7133.72041e-4
          0.10100000
  0.014716371300  0.000000000000
  0.096582975600  0.000000000000
  0.309553043000  0.000000000000
  0.499207374000  0.000000000000
  0.312472372000  0.000000000000
  0.000000000000  1.000000000000
* d-type functions
    1    1
          3.44400000
  1.000000000000
********************************************************************************
* Core AIMP: MGQR-2S
*
* Local Potential Parameters : (ECP convention)
*                              A(AIMP)=-Zeff*A(ECP)
********************************************************************************
M1
 10
  2.6490000000e5  3.0630000000e4  5.5970000000e3  1.3036000000e3  3.7170000000e2  1.2337000000e2 44.020000000000 10.125000000000  4.116000000000  1.799000000000
  0.006654068375  0.010180315125  0.020904346250  0.039021251250  0.069510491250  0.094273611250  0.058209160000  0.070724320000  0.104196217500  0.026326217500
M2
  0
COREREP
 1.0
PROJOP
    0
    8    2
 98.260626000000  7.560278400000
       1904.00000000
        345.50000000
         96.13000000
         32.80000000
         12.43200000
          3.42400000
          1.38300000
          0.56160000
  0.018328753000  0.004534055400
  0.093330879000  0.025395320000
  0.279340860000  0.078901697000
  0.454710140000  0.179535480000
  0.285719650000  0.149660240000
  0.025819724000 -0.337746280000
 -0.005407629400 -0.601641570000
  0.001617642800 -0.209552930000
Spectral Representation Operator
Valence primitive basis
Exchange
1stOrder Relativistic Correction
MGQR-2S
End of Spectral Representation Operator

/Ca.CG-AIMP.Barandiaran.9s7p5d.1s2p3d.ECP.8el.
Z. Barandiaran, L. Seijo. Can. J. Chem. 70 (1992) 409-415. doi:10.1139/v92-059
CALCIUM (9s,7p,5d) -> [1s,2p,3d]
********************************************************************************
*relativistic  core[Mg] val[3p,4s] (91/611*/311)=2s3p3d recommended
*
* - d set from
*   L.G.M. Pettersson, P.E.M. Siegbahn, S. Ismail. Chem. Phys. 82 (1983) 355-368. doi:10.1016/0301-0104(83)85240-9
*
*CAQR-PS(9/61/311)             (81/511/311)
********************************************************************************
     8.0   2
* s-type functions
    9    1
       2307.47283000
        339.77825000
         75.27504150
          7.12790585
          3.32722412
          0.96944504
       4018.27245e-4
       6283.08737e-5
       2518.11018e-5
 -0.001325866600
 -0.008933587540
 -0.026960551500
  0.102469954000
  0.077037190300
 -0.204180745000
 -0.352158018000
  0.702263064000
  0.454948233000
* p-type functions
    7    2
        145.01320100
         33.17408270
          9.66829825
          1.21623607
       4862.04305e-4
       1917.62455e-4
          0.05900000
 -0.017810797900  0.000000000000
 -0.101606111000  0.000000000000
 -0.223228048000  0.000000000000
  0.498411463000  0.000000000000
  0.493766014000  0.000000000000
  0.113613863000  0.000000000000
  0.000000000000  1.000000000000
* d-type functions
    5    3
          7.45500000
          1.86600000
          0.54500000
          0.16770000
          0.05890000
  0.062760000000  0.000000000000  0.000000000000
  0.241760000000  0.000000000000  0.000000000000
  0.410790000000  0.000000000000  0.000000000000
  0.000000000000  1.000000000000  0.000000000000
  0.000000000000  0.000000000000  1.000000000000
********************************************************************************
* Core AIMP: CAQR-3S
*
* Local Potential Parameters : (ECP convention)
*                              A(AIMP)=-Zeff*A(ECP)
********************************************************************************
M1
 11
  2.4940000000e5  2.9490000000e4  5.8210000000e3  1.4536000000e3  4.3480000000e2  1.4146000000e2 41.980000000000 16.446000000000  6.085000000000  1.809000000000  0.850100000000
  0.018389275000  0.027143121250  0.052656742500  0.096941850000  0.151153750000  0.162594675000  0.275278575000  0.427729500000  0.106232441250  0.147057050000  0.034823017500
M2
  0
COREREP
 1.0
PROJOP
    1
   10    3
  3.0039369000e2 33.940912000000  4.524072200000
       4675.00000000
        833.00000000
        231.50000000
         80.52000000
         32.04000000
          9.60200000
          3.98800000
          1.25500000
          0.61020000
          0.27120000
  0.022956501000  0.006605525600  0.002311143500
  0.113826570000  0.036273117000  0.012439526000
  0.321025140000  0.108632320000  0.038659981000
  0.450210740000  0.225890360000  0.080889684000
  0.229266800000  0.120955910000  0.049445451000
  0.018168922000 -0.520284780000 -0.264988090000
 -0.004875020500 -0.577981050000 -0.467676160000
  0.002219988500 -0.066900123000  0.307685490000
 -0.001285989100  0.014734763000  0.718231790000
  0.000463608330 -0.003551512300  0.218234480000
    8    1
 27.291047000000
        246.00000000
         62.10000000
         21.16000000
          8.19000000
          3.43000000
          1.31200000
          0.52870000
          0.20570000
  0.023245945000
  0.125845540000
  0.341691520000
  0.461128790000
  0.228384930000
  0.020132687000
 -0.000834760850
  0.000148268950
Spectral Representation Operator
Valence primitive basis
Exchange
1stOrder Relativistic Correction
CAQR-3S
End of Spectral Representation Operator

/Sr.CG-AIMP.Barandiaran.11s9p6d.1s2p1d.ECP.8el.
Z. Barandiaran, L. Seijo. Can. J. Chem. 70 (1992) 409-415. doi:10.1139/v92-059
STRONTIUM (11s,9p,6d) -> [1s,2p,1d]
********************************************************************************
*relativistic    core[Zn] val[4p,5s]  (11,11/811*/611)=3s3p3d recommended
*
* - d function optimized in  Sr(+) (4d1-2D), from
*   L. Seijo, Z. Barandiaran, S. Huzinaga. J. Chem. Phys. 94 (1991) 3762-3773. doi:10.1063/1.459748
*
*SRQR-PSD(A1/81/6)
********************************************************************************
     8.0   2
* s-type functions
   11    1
      10928.35190000
       1484.03484000
        313.80029600
         30.28726000
         13.31066260
          5.37064168
          2.69204373
       7000.78555e-4
       3156.00888e-4
       5368.97246e-5
       2213.36932e-5
  0.000609661435
  0.004203693180
  0.013678844800
 -0.059911742500
 -0.028142695000
  0.099013650100
  0.154750628000
 -0.241873059000
 -0.386752203000
  0.724809989000
  0.451875073000
* p-type functions
    9    2
        725.86496400
        166.58813400
         50.93478560
          7.43901904
          3.51841527
       8869.31348e-4
       3920.87083e-4
       1599.15818e-4
          0.04800000
  0.005868559090  0.000000000000
  0.037142520300  0.000000000000
  0.092173843800  0.000000000000
 -0.213548191000  0.000000000000
 -0.212545982000  0.000000000000
  0.440939801000  0.000000000000
  0.548839351000  0.000000000000
  0.153148997000  0.000000000000
  0.000000000000  1.000000000000
* d-type functions
    6    1
         72.22693400
         20.13724080
          6.50674132
       7098.32864e-4
       2209.87611e-4
        692.00405e-4
 -0.010763751800
 -0.050485078600
 -0.086776266900
  0.259639551000
  0.500994036000
  0.472896304000
********************************************************************************
* Core AIMP: SRQR-3D
*
* Local Potential Parameters : (ECP convention)
*                              A(AIMP)=-Zeff*A(ECP)
********************************************************************************
M1
 12
  3.2549928000e5  4.4971532000e4  9.8659817000e3  2.6503724000e3  8.1459724000e2  2.4452921000e2 89.674409000000 31.454652000000 11.123408000000  4.967020600000  1.420026500000
  0.667360000000
  0.041228280000  0.054407925000  0.102720798750  0.178305012500  0.240777937500  0.344792975000  0.633405687500  0.357066287500  1.063831837500  0.512818787500  0.181798275000
  0.038846201250
M2
  0
COREREP
 1.0
PROJOP
    2
   12    4
  1.1920109000e3  1.6640952000e2 27.929122000000  3.898149800000
      20388.12700000
       3353.96020000
        894.79249000
        305.04003000
        121.28595000
         42.51764600
         18.60512900
          6.61182450
          3.14368470
          1.30109030
          0.58921808
          0.25000000
  0.023942579000  0.007924763400  0.003286036900  0.001189750400
  0.115323290000  0.040969336000  0.016808645000  0.005886622500
  0.324427200000  0.126047240000  0.053478813000  0.019442781000
  0.455010130000  0.249721900000  0.108259690000  0.037990799000
  0.223951450000  0.126381700000  0.062763472000  0.024776816000
  0.015219441000 -0.519374790000 -0.350876690000 -0.139531250000
 -0.005698038200 -0.582583040000 -0.544360350000 -0.217623140000
  0.001697229700 -0.081390778000  0.429973880000  0.206219860000
  0.000471029250  0.016479256000  0.766331480000  0.652746650000
  0.000651920680 -0.006568269800  0.120031290000  0.009770927400
 -0.000667626440  0.002721915400 -0.006054601300 -0.879233840000
 -0.000114690850 -0.000799220840  0.001768062800 -0.366745830000
   10    2
  1.4751367000e2 21.625928000000
        852.85326000
        210.43557000
         71.81539500
         28.26563000
         11.67008900
          4.87996890
          2.04604400
          0.85820360
          0.35998401
          0.15100000
  0.033213131000  0.014117549000
  0.176981130000  0.078917574000
  0.433507950000  0.207692340000
  0.431573290000  0.198735800000
  0.109314730000 -0.263074490000
  0.001217947600 -0.628133310000
  0.000889906590 -0.262220840000
 -0.000285965630 -0.004846138900
  0.000401445550 -0.003969321600
 -0.000012827202  0.001234100500
    6    1
 11.186284000000
        156.27844000
         47.29454700
         17.82072700
          7.24770040
          2.99900000
          1.17000000
  0.016664724000
  0.096997686000
  0.281434450000
  0.436127770000
  0.349463530000
  0.093812749000
Spectral Representation Operator
Valence primitive basis
Exchange
1stOrder Relativistic Correction
SRQR-3D
End of Spectral Representation Operator

/Ba.CG-AIMP.Barandiaran.13s11p8d.1s2p1d.ECP.8el.
Z. Barandiaran, L. Seijo. Can. J. Chem. 70 (1992) 409-415. doi:10.1139/v92-059
BARIUM (13s,11p,8d) -> [1s,2p,1d]
********************************************************************************
*relativistic  core[Cd] val[5p,6s]     (13,1,1/10,11*/811)=3s3p3d recommended
*
* - d function optimized in  Ba(+) (5d1-2D), from
*   L.Seijo, Z.Barandiaran, and S.Huzinaga,  J.Chem.Phys. 94(1991)3762.
*
*BAQR-PSD(A3/A01/8)
********************************************************************************
     8.0   2
* s-type functions
   13    1
      35417.37680000
       4192.21930000
        808.91462100
         73.87028010
         38.38448340
         13.87961220
          7.96785216
          3.34245209
          1.58743792
       6533.79093e-4
          0.26277950
       4144.77409e-5
       1772.23962e-5
 -0.000352292831
 -0.002461917360
 -0.008452350770
  0.038200991700
  0.015000538700
 -0.084592809300
 -0.088895870200
  0.142419284000
  0.260592997000
 -0.218397120000
 -0.532738967000
  0.792134489000
  0.397107621000
* p-type functions
   11    2
       1920.11413000
        431.66378200
        131.84252200
         19.51115000
          9.92007250
          3.90836298
          1.97558259
       6148.24094e-4
       2939.80327e-4
       1235.15617e-4
          0.03700000
 -0.003076319350  0.000000000000
 -0.020091015000  0.000000000000
 -0.053467778500  0.000000000000
  0.162963716000  0.000000000000
  0.083880830800  0.000000000000
 -0.281479463000  0.000000000000
 -0.316534971000  0.000000000000
  0.416232548000  0.000000000000
  0.592858830000  0.000000000000
  0.169915680000  0.000000000000
  0.000000000000  1.000000000000
* d-type functions
    8    1
        248.50954300
         71.77725600
         25.42475980
          4.62315880
          2.27995234
       4233.56486e-4
       1538.81417e-4
       5595.26056e-5
  0.004414226870
  0.024584745000
  0.049767899000
 -0.093324198300
 -0.116871552000
  0.304350789000
  0.524914431000
  0.364135032000
********************************************************************************
* Core AIMP: BAQR-4D
*
* Local Potential Parameters : (ECP convention)
*                              A(AIMP)=-Zeff*A(ECP)
********************************************************************************
M1
 12
  4.1180000000e5  6.3780000000e4  1.5160000000e4  4.3010000000e3  1.3330000000e3  4.1350000000e2  1.6704000000e2 47.577000000000 26.409000000000  4.942800000000  2.046400000000
  0.690280000000
  0.063081620000  0.076709061250  0.139998337500  0.229108112500  0.299665625000  0.530313375000  0.652893962500  0.809986800000  1.099450887500  1.439377375000  0.507670675000
  0.151744137500
M2
  0
COREREP
 1.0
PROJOP
    2
   15    5
  2.7712681000e3  4.4588786000e2 97.426668000000 20.531505000000  3.208525300000
     137679.91000000
      18460.22500000
       4301.80760000
       1325.40810000
        476.77996000
        170.56742000
         79.45514800
         37.45382900
         15.56271700
          7.91451030
          3.41262910
          1.70761520
          0.69938154
          0.36194010
          0.16800000
  0.011963253000  0.004346785300  0.001955246400  0.000916886180  0.000362661640
  0.057439447000  0.021350374000  0.009832088100  0.004549675800  0.001782593900
  0.189534780000  0.075172707000  0.034265852000  0.016117530000  0.006379470900
  0.399666220000  0.185290320000  0.088574955000  0.041253156000  0.016177047000
  0.414702860000  0.261136730000  0.127891820000  0.061672643000  0.024612510000
  0.108983640000 -0.085772907000 -0.053659264000 -0.030136914000 -0.012759454000
 -0.025327396000 -0.630851840000 -0.558400040000 -0.292935370000 -0.117359940000
  0.004650117900 -0.398437660000 -0.396292790000 -0.247039210000 -0.105712440000
 -0.002582652600 -0.040857792000  0.722577420000  0.664999490000  0.309224050000
  0.007898679600  0.009679346600  0.602922580000  0.752787320000  0.362616820000
 -0.003821093900 -0.003952973500  0.061252611000 -0.720663930000 -0.470605130000
 -0.000149155270  0.001003273800 -0.006201651800 -0.752764390000 -0.779755800000
 -0.000805285970 -0.000998888470  0.002523146100 -0.064821796000  0.265836640000
  0.001053042500  0.000888084100 -0.001109929100  0.005351643700  0.873980810000
  0.000046714738 -0.000040438182  0.000327563710 -0.001102148800  0.255828750000
   12    3
  3.9977723000e2 82.236503000000 15.415171000000
       2151.54450000
        534.81085000
        184.37011000
         73.54107600
         29.72622500
         13.44822800
          5.83832540
          2.84445070
          1.35131800
          0.57041553
          0.25373000
          0.10300000
  0.031562456000  0.015502947000  0.007122294800
  0.164090380000  0.082961670000  0.038062331000
  0.412537010000  0.228284910000  0.107598480000
  0.449449090000  0.228188120000  0.103390360000
  0.130708540000 -0.291528530000 -0.198754180000
 -0.009557693900 -0.656204570000 -0.483356940000
  0.005459128800 -0.208620150000  0.136209480000
 -0.002729955000  0.009876825900  0.707301390000
  0.002528584600 -0.007358240700  0.319493180000
 -0.001193385900  0.002927919300  0.022070301000
  0.000151160460 -0.001533922400 -0.000454591020
 -0.000173517650  0.000319935190 -0.000014513855
    8    2
 60.028554000000  7.718342200000
        519.86816000
        155.03595000
         57.91687000
         23.84764600
         10.45089200
          4.40180800
          1.88420000
          0.75160000
  0.011606550000  0.004976470000
  0.079697799000  0.036802451000
  0.276402970000  0.125053920000
  0.469868430000  0.213999490000
  0.331648530000  0.020966451000
  0.059838110000 -0.459716100000
 -0.001825824900 -0.520050570000
  0.000435668300 -0.148467330000
Spectral Representation Operator
Valence primitive basis
Exchange
1stOrder Relativistic Correction
BAQR-4D
End of Spectral Representation Operator

********************************************************************************
*         C.1.1.3. Group IIIA Elements
********************************************************************************

/B.CG-AIMP.Barandiaran.5s5p1d.1s1p1d.ECP.3el.
Z. Barandiaran, L. Seijo. Can. J. Chem. 70 (1992) 409-415. doi:10.1139/v92-059
BORON (5s,5p,1d) -> [1s,1p,1d]
********************************************************************************
*relativistic  core[He] val[2s,2p]     (51/511/1*)=2s3p1d recommended
*BQR-SP(5/5/1)
********************************************************************************
     3.0   2
* s-type functions
    5    1
        111.49444600
         16.69452780
          3.52345425
       2746.44305e-4
       9033.31215e-5
 -0.013370838100
 -0.082956770100
 -0.225415303000
  0.628185390000
  0.462856747000
* p-type functions
    5    1
         12.64727830
          2.73988909
       7797.00933e-4
       2470.83048e-4
       7892.85546e-5
  0.012276323100
  0.075749775400
  0.269126636000
  0.504965329000
  0.365414131000
* d-type functions
    1    1
          0.38800000
  1.000000000000
********************************************************************************
* Core AIMP: BQR-1S
*
* Local Potential Parameters : (ECP convention)
*                              A(AIMP)=-Zeff*A(ECP)
********************************************************************************
M1
  7
  1.4413923000e5  1.0515800000e4  1.4368389000e3  2.6575226000e2 62.590380000000 17.987362000000  5.952552400000
  0.009141357333  0.018793089000  0.042974810000  0.090529210000  0.177389583333  0.237125146667  0.090713466667
M2
  0
COREREP
 1.0
PROJOP
    0
    6    1
 15.395428000000
        477.10000000
         87.19000000
         24.22000000
          8.15200000
          3.06700000
          1.19680000
  0.010889908000
  0.057606808000
  0.187195770000
  0.383330510000
  0.403170110000
  0.113553970000
Spectral Representation Operator
Valence primitive basis
Exchange
1stOrder Relativistic Correction
BQR-1S
End of Spectral Representation Operator

/Al.CG-AIMP.Barandiaran.7s6p1d.1s1p1d.ECP.3el.
Z. Barandiaran, L. Seijo. Can. J. Chem. 70 (1992) 409-415. doi:10.1139/v92-059
ALUMINIUM (7s,6p,1d) -> [1s,1p,1d]
********************************************************************************
*relativistic  core[Ne] val[3s,3p]     (71/611/1*)=2s3p1d recommended
*ALQR-SP(7/6/1)
********************************************************************************
     3.0   2
* s-type functions
    7    1
        888.60370700
        133.25773100
         29.61561960
          2.74099968
          1.09052169
       1687.53939e-4
       6132.27047e-5
  0.003482340740
  0.022906301200
  0.065814547500
 -0.187330220000
 -0.268919395000
  0.666404600000
  0.476224672000
* p-type functions
    6    1
         41.06572930
          9.11237216
          2.40139557
       2226.03751e-4
       8323.85547e-5
       3279.76823e-5
 -0.013384536000
 -0.065710812900
 -0.121540414000
  0.359686810000
  0.532287748000
  0.232912182000
* d-type functions
    1    1
          0.19800000
  1.000000000000
********************************************************************************
* Core AIMP: ALQR-2P
*
* Local Potential Parameters : (ECP convention)
*                              A(AIMP)=-Zeff*A(ECP)
********************************************************************************
M1
  9
  2.0591636000e5  1.9449923000e4  3.3266495000e3  7.6857670000e2  2.1293867000e2 64.893283000000 16.953874000000  5.790198600000  2.184734800000
  0.033301475000  0.057671120000  0.114951280000  0.219094720000  0.371334233333  0.417050433333  0.645665266667  1.101695400000  0.372569433333
M2
  0
COREREP
 1.0
PROJOP
    1
    8    2
  1.1727777000e2  9.858804400000
       2322.00000000
        419.80000000
        116.43000000
         39.60000000
         14.97000000
          4.20300000
          1.73400000
          0.71570000
  0.017657933000  0.004509604800
  0.090372248000  0.025236531000
  0.273734730000  0.079696655000
  0.454387880000  0.182946270000
  0.293347570000  0.158854240000
  0.027945160000 -0.331863140000
 -0.005894880100 -0.613108040000
  0.001664452700 -0.205128370000
    7    1
  6.435178100000
        175.00000000
         44.97000000
         15.60000000
          6.18600000
          2.59000000
          1.11100000
          0.45150000
  0.007623849700
  0.044639168000
  0.149684350000
  0.308303210000
  0.395962520000
  0.271255650000
  0.052311831000
Spectral Representation Operator
Valence primitive basis
Exchange
1stOrder Relativistic Correction
ALQR-2P
End of Spectral Representation Operator

/Ga.CG-AIMP.Barandiaran.9s8p4d.1s1p2d.ECP.3el.
Z. Barandiaran, L. Seijo. Can. J. Chem. 70 (1992) 409-415. doi:10.1139/v92-059
GALLIUM (9s,8p,4d) -> [1s,1p,2d]
********************************************************************************
*relativistic  core[Ar,3d] val[4s,4p]     (911/811/3o1*)=3s3p2d recommended
*
* - (3o) d orthogonality function by maximum overlap to the 3d core orbital
*
*GAQR-SP(9/8/31)
********************************************************************************
     3.0   2
* s-type functions
    9    1
       6581.47359000
        924.36115100
        198.91522900
         18.90924710
          7.23740700
          3.54325421
          1.37505787
       1906.60037e-4
       6856.04918e-5
 -0.001441532790
 -0.009938166080
 -0.031871967100
  0.138582755000
  0.083301748700
 -0.209893339000
 -0.351923409000
  0.675768961000
  0.471874117000
* p-type functions
    8    1
        445.62972300
        102.65496100
         31.06769200
          4.22236372
          1.69838834
       2816.45945e-4
       1058.30281e-4
       3879.05322e-5
  0.002800945110
  0.017378210400
  0.042200923300
 -0.099560126400
 -0.105810863000
  0.264560451000
  0.541465411000
  0.336752081000
* d-type functions
    4    2
         12.52500000
          2.99590000
          0.73735000
          0.20700000
  0.329082367000  0.000000000000
  0.598933980000  0.000000000000
  0.376265166000  0.000000000000
  0.000000000000  1.000000000000
********************************************************************************
* Core AIMP: GAQR-3D
*
* Local Potential Parameters : (ECP convention)
*                              A(AIMP)=-Zeff*A(ECP)
********************************************************************************
M1
 11
  3.4160000000e5  4.9500000000e4  1.1130000000e4  3.0040000000e3  9.2800000000e2  2.9510000000e2 92.100000000000 36.820000000000  8.780000000000  3.500000000000  1.133000000000
  0.081074516667  0.102668253333  0.192295430000  0.343394866667  0.532781166667  0.648785266667  1.273601233333  1.369636233333  1.907521366667  2.368882633333  0.512692400000
M2
  0
COREREP
 1.0
PROJOP
    2
   10    3
  7.6817238000e2 98.651282000000 13.164149000000
      16840.00000000
       2850.00000000
        764.30000000
        256.10000000
         97.20000000
         28.10000000
         12.23000000
          4.41600000
          2.05400000
          0.87100000
  0.016717604000  0.005231033500  0.002022612500
  0.083505576000  0.028645939000  0.010952998000
  0.259712490000  0.092322634000  0.036242396000
  0.449044250000  0.220091200000  0.087968319000
  0.317371910000  0.191441200000  0.083951981000
  0.035773703000 -0.466780640000 -0.277952200000
 -0.012936121000 -0.617049950000 -0.532974840000
  0.005362470100 -0.092050650000  0.260393060000
 -0.002349010800  0.011205644000  0.767081260000
  0.000979770260 -0.002799575300  0.245488910000
    8    2
 85.575552000000  9.052686100000
        689.40000000
        175.00000000
         60.56000000
         24.09000000
         10.34000000
          4.25200000
          1.76200000
          0.69700000
  0.021959934000  0.008320048400
  0.121257390000  0.048865335000
  0.340420490000  0.141853250000
  0.463188210000  0.214010390000
  0.221947730000 -0.026166105000
  0.020800956000 -0.483144400000
  0.000468339070 -0.493906110000
  0.000111902800 -0.124534440000
    6    1
  2.332125700000
         56.38000000
         16.64000000
          6.09000000
          2.33100000
          0.88200000
          0.31210000
  0.035539124000
  0.162792570000
  0.349726350000
  0.414606310000
  0.293593230000
  0.088530299000
Spectral Representation Operator
Valence primitive basis
Exchange
1stOrder Relativistic Correction
GAQR-3D
End of Spectral Representation Operator

/In.CG-AIMP.Barandiaran.11s10p7d.1s1p2d.ECP.13el.
Z. Barandiaran, L. Seijo. J. Chem. Phys. 101 (1994) 4049-4054. doi:10.1063/1.467522
INDIUM (11s,10p,7d) -> [1s,1p,2d]
********************************************************************************
*relativistic  core[Kr] val[4d,5s,5p]     (11,11/10,11/611*)=3s3p3d recommended
*INQR-DSP(A1/A0/61)
********************************************************************************
    13.0   2
* s-type functions
   11    1
      23244.88900000
       2909.43316000
        579.88141300
         53.64105670
         25.96878650
         11.24874630
          6.95532303
          1.82455198
       9419.21748e-4
       1557.16831e-4
       5805.20722e-5
  0.000812717882
  0.005682788230
  0.019480289600
 -0.088916149200
 -0.033142589400
  0.083206241500
  0.252380382000
 -0.290953733000
 -0.389117118000
  0.718382727000
  0.462746192000
* p-type functions
   10    1
       1348.56503000
        306.33893300
         93.98500790
         14.72844410
          8.17278354
          2.41502946
          1.10979905
       2040.22181e-4
       8265.88448e-5
       3242.48836e-5
 -0.001564802990
 -0.010085974400
 -0.025834371200
  0.059332302500
  0.053951877300
 -0.129722003000
 -0.155996721000
  0.300757405000
  0.541988430000
  0.295043526000
* d-type functions
    7    2
        166.58841900
         47.64445480
         16.43132130
          2.49412196
       9718.85384e-4
       3444.30618e-4
          0.16000000
 -0.018911115500  0.000000000000
 -0.100642064000  0.000000000000
 -0.194294050000  0.000000000000
  0.424381464000  0.000000000000
  0.510161834000  0.000000000000
  0.231743281000  0.000000000000
  0.000000000000  1.000000000000
********************************************************************************
* Core AIMP: INQR-4P
*
* Local Potential Parameters : (ECP convention)
*                              A(AIMP)=-Zeff*A(ECP)
********************************************************************************
M1
 12
  3.7560000000e5  6.0400000000e4  1.4770000000e4  4.2970000000e3  1.3890000000e3  4.3550000000e2  1.6370000000e2 57.270000000000 21.790000000000  9.778000000000  3.123000000000
  1.465000000000
  0.032219528462  0.037930505385  0.068333183846  0.113930007692  0.154098092308  0.225866569231  0.411422630769  0.239343553846  0.808134692308  0.174863815385  0.411464569231
  0.091623653846
M2
  0
COREREP
 1.0
PROJOP
    2
   12    4
  2.0676160000e3  3.1625998000e2 62.864333000000 10.621440000000
      74090.00000000
      10960.00000000
       2667.00000000
        828.90000000
        296.30000000
         85.50000000
         38.43000000
         14.48000000
          7.52000000
          3.42600000
          1.57000000
          0.67010000
  0.013567540000  0.004670370100  0.002058038100  0.000894334950
  0.065534622000  0.024223885000  0.010735194000  0.004566575600
  0.218911200000  0.083250240000  0.037233319000  0.016205540000
  0.437914780000  0.213498460000  0.098600710000  0.042307603000
  0.382649640000  0.233651110000  0.114800920000  0.051318080000
  0.058885678000 -0.389357270000 -0.276528080000 -0.133527250000
 -0.027624442000 -0.660467050000 -0.648557250000 -0.325094870000
  0.013790738000 -0.140386530000  0.207778540000  0.123001000000
 -0.007447769800  0.030266804000  0.889190030000  0.913958140000
  0.006091381700 -0.010359201000  0.206873580000  0.049226081000
 -0.003434084100  0.003439880100 -0.001185336700 -0.984228760000
  0.000194302660 -0.001095535000  0.001711847500 -0.351389630000
    9    3
  2.8357531000e2 51.854186000000  7.163484100000
       1383.00000000
        344.90000000
        118.00000000
         46.68000000
         17.56000000
          7.67000000
          2.98800000
          1.32100000
          0.53040000
  0.038077031000  0.018278186000  0.007474989400
  0.195961890000  0.094655267000  0.039355776000
  0.454450460000  0.248840490000  0.104570750000
  0.416870460000  0.168355920000  0.066820899000
  0.085210314000 -0.442549750000 -0.266591450000
 -0.010410794000 -0.601946490000 -0.370761910000
  0.004251563000 -0.107348460000  0.377368480000
 -0.001451351300  0.008442792600  0.653445580000
  0.000727718040 -0.002356264400  0.184388080000
    7    1
 34.739695000000
        133.80000000
         39.89000000
         14.69000000
          5.93400000
          2.21800000
          0.82700000
          0.28670000
  0.077092758000
  0.319643400000
  0.514845300000
  0.293139010000
  0.032332517000
 -0.001417962200
  0.000305175250
Spectral Representation Operator
Valence primitive basis
Exchange
1stOrder Relativistic Correction
INQR-4P
End of Spectral Representation Operator

/Tl.CG-AIMP.Barandiaran.13s12p8d5f.1s1p2d1f.ECP.13el.
Z. Barandiaran, L. Seijo. J. Chem. Phys. 101 (1994) 4049-4054. doi:10.1063/1.467522
THALLIUM (13s,12p,8d,5f) -> [1s,1p,2d,1f]
********************************************************************************
*relativistic core[Xe,4f] val[5d,6s,6p] SO-corr (13,11/12,111/711*/5o1)=3s4p3d2f recommended
*
* - spin-orbit basis set correction from
*   L. Seijo. J. Chem. Phys. 102 (1995) 8078-8088. doi:10.1063/1.469007
*
* - (5o) f orthogonality function is the 4f core orbital
*
*TLQR-DSP(A3/A2/71/5)-SO
********************************************************************************
    13.0   3
* s-type functions
   13    1
    1144962.08000000
      87806.77260000
      11821.47400000
       2199.89028000
        186.42977800
         87.72628340
         35.04831720
         26.33838020
          6.56504443
          3.65614526
          1.22297455
       1628.03123e-4
       6043.69397e-5
 -0.000118851789
 -0.000804398458
 -0.004115028820
 -0.012604833600
  0.059750690600
  0.017674271600
 -0.163283910000
 -0.046742272800
  0.490380435000
 -0.107318849000
 -0.707888906000
  0.785686366000
  0.399023479000
* p-type functions
   12    1
       5228.56683000
       1117.04288000
        330.96413700
         49.16731550
         20.92922770
         14.30384230
          7.32130824
          1.89380634
       9174.34607e-4
       2080.89743e-4
        821.36633e-4
       3120.81612e-5
  0.000648105463
  0.005770771490
  0.016037268500
 -0.052108058000
 -0.033562029300
  0.063321180400
  0.108153525000
 -0.169540049000
 -0.150705238000
  0.270229133000
  0.549290205000
  0.330372511000
* d-type functions
    8    2
        685.88072000
        198.23699000
         71.91678560
         15.67158210
          9.14474213
          1.47819336
       4616.19567e-4
          0.14600000
  0.006903196360  0.000000000000
  0.041583484200  0.000000000000
  0.092304786800  0.000000000000
 -0.101348386000  0.000000000000
 -0.219461792000  0.000000000000
  0.607830947000  0.000000000000
  0.523404512000  0.000000000000
  0.000000000000  1.000000000000
* f-type functions
    5    1
         94.24000000
         31.04000000
         12.05000000
          4.79900000
          1.77200000
  0.071224319000
  0.282306710000
  0.471427870000
  0.382777210000
  0.117101190000
********************************************************************************
* Core AIMP: TLQR-4F
*
* Local Potential Parameters : (ECP convention)
*                              A(AIMP)=-Zeff*A(ECP)
********************************************************************************
M1
 14
  3.8594000000e6  5.0398000000e5  1.0648700000e5  2.7862000000e4  8.4641000000e3  2.7592000000e3  9.3578000000e2  3.9509000000e2  1.2100300000e2 70.936000000000 15.829000000000
  7.400600000000  2.777900000000  1.299000000000
  0.023274230769  0.031877792308  0.059633770769  0.103707046154  0.157232207692  0.206489707692  0.371377953846  0.420555215385  0.615908107692  0.703826576923  1.386965076923
  0.557556192308  0.501747600000  0.090617753846
M2
  0
COREREP
 1.0
PROJOP
    3
   15    5
  6.3472908000e3  1.1419602000e3  2.7768116000e2 64.778166000000 11.262970000000
    1074700.00000000
     123200.00000000
      25090.00000000
       6863.00000000
       2265.00000000
        851.60000000
        288.50000000
        127.60000000
         47.85000000
         25.69000000
         10.54000000
          5.59800000
          2.22400000
          1.18500000
          0.54250000
  0.009553632100  0.003882279800  0.001862526500  0.000938924610  0.000416307570
  0.034783533000  0.014249577000  0.006924361200  0.003471401300  0.001535465700
  0.105370470000  0.045991010000  0.022270567000  0.011273847000  0.005004918400
  0.259245990000  0.117699860000  0.058383196000  0.029372464000  0.013000843000
  0.422292240000  0.232413150000  0.117037040000  0.059995803000  0.026726625000
  0.328230840000  0.170110330000  0.088780891000  0.044508889000  0.019641339000
  0.044126305000 -0.420263110000 -0.355413610000 -0.202064500000 -0.092090779000
 -0.032855309000 -0.645203450000 -0.669362510000 -0.423102340000 -0.199095830000
  0.011552384000 -0.129003070000  0.427003660000  0.465358100000  0.249729540000
  0.007050150300  0.041461879000  0.824841710000  1.009161800000  0.561772520000
  0.001362716200 -0.015645824000  0.129898780000 -0.569170870000 -0.477447080000
 -0.008336465800  0.005044108300 -0.025007276000 -0.885446630000 -1.000878600000
  0.001811373100 -0.003880065600  0.008386778500 -0.091723752000  0.461884340000
  0.000934472360  0.003353710200 -0.003526190900  0.014342761000  0.854039310000
  0.000503095350 -0.000321088630  0.001019992400 -0.002414580800  0.178973180000
   12    4
  9.8602654000e2  2.3192976000e2 49.474311000000  6.895190200000
       7743.00000000
       1829.00000000
        613.50000000
        243.80000000
        107.02000000
         48.94000000
         23.88000000
         10.88500000
          5.28000000
          2.18800000
          0.99670000
          0.40730000
  0.019982933000  0.010526717000  0.005356548300  0.002187848700
  0.106401890000  0.058553117000  0.029400188000  0.012239408000
  0.314688200000  0.180927160000  0.093904699000  0.038626426000
  0.467643730000  0.285041710000  0.145569530000  0.061265354000
  0.255373260000 -0.024881961000 -0.041493116000 -0.022597411000
  0.021429534000 -0.590560270000 -0.497429140000 -0.225274260000
 -0.003810397600 -0.429373240000 -0.226719290000 -0.094574719000
  0.001936020200 -0.056526195000  0.640267310000  0.441043710000
  0.002973372300  0.004645139300  0.536388830000  0.340584580000
 -0.000790608160 -0.001639557100  0.059610838000 -0.541272420000
 -0.000854597700 -0.000183104750 -0.004707725600 -0.595022190000
 -0.000206733150 -0.000271708240  0.000939625770 -0.119345970000
   10    2
  1.8255545000e2 30.827803000000
        638.80000000
        194.80000000
         75.86000000
         33.02000000
         14.20400000
          6.34100000
          2.70300000
          1.17720000
          0.48300000
          0.18330000
  0.044034627000  0.023791698000
  0.222177180000  0.120020690000
  0.468566890000  0.257251580000
  0.391446870000  0.080976949000
  0.087812967000 -0.464697810000
 -0.002613667700 -0.533099050000
  0.001879114600 -0.133976170000
 -0.000569963450  0.000846096550
  0.000630230480 -0.001911616500
 -0.000041753855  0.000626294690
    5    1
 10.206305000000
         94.24000000
         31.04000000
         12.05000000
          4.79900000
          1.77200000
  0.071224319000
  0.282306710000
  0.471427870000
  0.382777210000
  0.117101190000
Spectral Representation Operator
Valence primitive basis
Exchange
1stOrder Relativistic Correction
TLQR-4F
End of Spectral Representation Operator

********************************************************************************
*         C.1.1.4. Group IVA Elements
********************************************************************************

/C.CG-AIMP.Barandiaran.5s5p1d.1s1p1d.ECP.4el.
Z. Barandiaran, L. Seijo. Can. J. Chem. 70 (1992) 409-415. doi:10.1139/v92-059
CARBON (5s,5p,1d) -> [1s,1p,1d]
********************************************************************************
*relativistic   core[He] val[2s,2p]     (51/511/1*)=2s3p1d recommended
*CQR-SP(5/5/1)
********************************************************************************
     4.0   2
* s-type functions
    5    1
        168.96490200
         25.34283620
          5.43152890
       4296.70047e-4
       1381.94898e-4
 -0.013485953900
 -0.085133513900
 -0.233829600000
  0.628321954000
  0.465319579000
* p-type functions
    5    1
         19.09624880
          4.21547915
          1.22238251
       3891.13508e-4
       1223.83076e-4
  0.013661995600
  0.085034378100
  0.286542592000
  0.501518674000
  0.348448489000
* d-type functions
    1    1
          0.60000000
  1.000000000000
********************************************************************************
* Core AIMP: CQR-1S
*
* Local Potential Parameters : (ECP convention)
*                              A(AIMP)=-Zeff*A(ECP)
********************************************************************************
M1
  7
  1.6153366000e5  1.3121775000e4  1.9127801000e3  3.6841865000e2 88.948770000000 25.979553000000  8.688237000000
  0.007649341500  0.014727541500  0.032968900000  0.068696430000  0.133643560000  0.176419957500  0.065894267500
M2
  0
COREREP
 1.0
PROJOP
    0
    6    1
 22.661651000000
        674.80000000
        123.24000000
         34.26000000
         11.55900000
          4.35700000
          1.68100000
  0.011290567000
  0.059636137000
  0.193411870000
  0.392405120000
  0.396898340000
  0.101303270000
Spectral Representation Operator
Valence primitive basis
Exchange
1stOrder Relativistic Correction
CQR-1S
End of Spectral Representation Operator

/Si.CG-AIMP.Barandiaran.7s6p1d.1s1p1d.ECP.4el.
Z. Barandiaran, L. Seijo. Can. J. Chem. 70 (1992) 409-415. doi:10.1139/v92-059
SILICON (7s,6p,1d) -> [1s,1p,1d]
********************************************************************************
*relativistic   core[Ne] val[3s,3p]     (71/611/1*)=2s3p1d recommended
*SIQR-SP(7/6/1)
********************************************************************************
     4.0   2
* s-type functions
    7    1
       1055.88913000
        157.35020800
         34.86559140
          3.25220266
          1.38760138
       2368.80009e-4
       8612.61651e-5
  0.003898070880
  0.025925664400
  0.075431476400
 -0.218190728000
 -0.284020803000
  0.683130784000
  0.474355167000
* p-type functions
    6    1
         52.21744150
         11.68643360
          3.16486958
       3203.55598e-4
       1221.63913e-4
       4839.31492e-5
 -0.014789157700
 -0.075245251000
 -0.144739717000
  0.396632008000
  0.521879992000
  0.202932775000
* d-type functions
    1    1
          0.26200000
  1.000000000000
********************************************************************************
* Core AIMP: SIQR-2P
*
* Local Potential Parameters : (ECP convention)
*                              A(AIMP)=-Zeff*A(ECP)
********************************************************************************
M1
  9
  2.2186105000e5  2.1997704000e4  3.8739011000e3  9.0993350000e2  2.5507869000e2 78.769081000000 20.991645000000  7.251562600000  2.806394000000
  0.025994322500  0.043578495000  0.086139492500  0.163100180000  0.276268250000  0.315025600000  0.474467025000  0.830475750000  0.284950875000
M2
  0
COREREP
 1.0
PROJOP
    1
    8    2
  1.3800092000e2 12.367349000000
       2429.00000000
        441.30000000
        123.60000000
         42.63000000
         16.44000000
          4.67300000
          1.92700000
          0.80500000
  0.020149137000  0.005265531600
  0.100814330000  0.029069187000
  0.293554490000  0.088473239000
  0.453660460000  0.195308410000
  0.265313980000  0.142808080000
  0.022842326000 -0.392322340000
 -0.004813648300 -0.605240690000
  0.001311048900 -0.152703920000
    7    1
  8.511971600000
        225.00000000
         57.72000000
         20.00000000
          7.93700000
          3.33800000
          1.44500000
          0.59390000
  0.006798700400
  0.040822083000
  0.141435620000
  0.303132380000
  0.401870790000
  0.276241460000
  0.052003176000
Spectral Representation Operator
Valence primitive basis
Exchange
1stOrder Relativistic Correction
SIQR-2P
End of Spectral Representation Operator

/Ge.CG-AIMP.Barandiaran.9s8p4d.1s1p2d.ECP.4el.
Z. Barandiaran, L. Seijo. Can. J. Chem. 70 (1992) 409-415. doi:10.1139/v92-059
GERMANIUM (9s,8p,4d) -> [1s,1p,2d]
********************************************************************************
*relativistic   core[Ar,3d] val[4s,4p]     (911/811/3o1*)=3s3p2d recommended
*
* - (3o) d orthogonality function by maximum overlap to the 3d core orbital
*
*GEQR-SP(9/8/31)               (711/611/31)
********************************************************************************
     4.0   2
* s-type functions
    9    1
       7127.44643000
        995.61781400
        213.61754200
         20.31471090
          7.68904809
          3.94024359
          1.56733437
       2381.51175e-4
       8734.77245e-5
 -0.001603053140
 -0.011071868200
 -0.035620295800
  0.155583606000
  0.097228869400
 -0.229448849000
 -0.399504061000
  0.707240034000
  0.458202986000
* p-type functions
    8    1
        478.78185000
        110.23443400
         33.47515780
          4.63553192
          1.90846884
       3540.21681e-4
       1411.40685e-4
       5374.20022e-5
  0.003444221720
  0.021393524400
  0.051819317600
 -0.121110294000
 -0.130449561000
  0.301964451000
  0.545878461000
  0.290615066000
* d-type functions
    4    2
         14.69800000
          3.60000000
          0.92616000
          0.24600000
  0.314046530000  0.000000000000
  0.599767940000  0.000000000000
  0.377137580000  0.000000000000
  0.000000000000  1.000000000000
********************************************************************************
* Core AIMP: GEQR-3D
*
* Local Potential Parameters : (ECP convention)
*                              A(AIMP)=-Zeff*A(ECP)
********************************************************************************
M1
 11
  3.3370000000e5  5.0310000000e4  1.1720000000e4  3.2550000000e3  1.0248000000e3  3.3430000000e2  1.0500000000e2 41.970000000000 10.260000000000  4.168000000000  1.443000000000
  0.063534450000  0.077831837500  0.142870917500  0.252984325000  0.391596850000  0.476029525000  0.914588550000  1.075290675000  1.323424750000  1.871207650000  0.410640450000
M2
  0
COREREP
 1.0
PROJOP
    2
   10    3
  8.2251367000e2  1.0695815000e2 14.814463000000
      18550.00000000
       3120.00000000
        833.30000000
        278.20000000
        105.20000000
         30.51000000
         13.35000000
          4.93900000
          2.30100000
          0.98300000
  0.016386855000  0.005163940400  0.002012619300
  0.081822122000  0.028169405000  0.010906971000
  0.255927130000  0.091402586000  0.036174550000
  0.448310480000  0.219073120000  0.088661934000
  0.322919060000  0.196170670000  0.086465863000
  0.037546063000 -0.456146330000 -0.273664240000
 -0.013830694000 -0.621898300000 -0.542951290000
  0.005729618100 -0.098076420000  0.230504900000
 -0.002451776000  0.010539366000  0.785330350000
  0.001048664900 -0.002636182300  0.256059880000
    8    2
 93.153484000000 10.422919000000
        768.70000000
        194.90000000
         67.43000000
         26.85000000
         11.56000000
          4.76200000
          1.99400000
          0.80200000
  0.020700823000  0.007957590700
  0.115495520000  0.047222411000
  0.330635800000  0.139661430000
  0.463452610000  0.217473880000
  0.234712800000 -0.010916368000
  0.024342498000 -0.475549860000
  0.000195697080 -0.503966850000
  0.000155522370 -0.127598010000
    6    1
  3.199805800000
         66.26000000
         19.71000000
          7.29000000
          2.84100000
          1.10300000
          0.40000000
  0.032013603000
  0.151747490000
  0.340990590000
  0.419796370000
  0.298489760000
[...]
  0.038569228000  0.017729643000  0.008756135500  0.004638144900  0.002399483800
  0.089861739000  0.042514656000  0.021261033000  0.011242109000  0.005820233200
  0.190084050000  0.094513454000  0.047262284000  0.025150426000  0.013024010000
  0.331652480000  0.174654820000  0.089508946000  0.047535945000  0.024653258000
  0.380754160000  0.215005560000  0.109114560000  0.058648992000  0.030415463000
  0.184949740000 -0.014006129000 -0.028698033000 -0.020345184000 -0.011186558000
 -0.009572513700 -0.506572970000 -0.458578610000 -0.281224700000 -0.152135500000
 -0.028005561000 -0.520515370000 -0.539822590000 -0.363257080000 -0.201618440000
  0.008483754700 -0.091403174000  0.488608840000  0.565532320000  0.363582180000
  0.024692086000  0.032379742000  0.781181000000  1.029348800000  0.706747710000
 -0.005543820800 -0.011632136000  0.138531870000 -0.521201260000 -0.590618660000
 -0.012445196000 -0.002822943700 -0.027209393000 -0.949928030000 -1.349649500000
  0.000840812660 -0.002106867000  0.008260593900 -0.128112970000  0.545150860000
  0.004344539500  0.004076291000 -0.001508698600  0.009356607400  1.008045400000
  0.000601717460  0.000141821420  0.000939026740 -0.001124101600  0.159220290000
   14    4
  1.7098033000e3  4.4494642000e2  1.1608808000e2 24.787001000000
      42760.00000000
       9391.00000000
       3003.00000000
       1159.30000000
        503.10000000
        236.10000000
        113.57000000
         58.35000000
         29.99000000
         16.01900000
          8.58200000
          4.60700000
          2.37200000
          1.09570000
  0.005215689000  0.002892487800  0.001553769100  0.000778132970
  0.027733430000  0.015483089000  0.008348799600  0.004219727400
  0.100984720000  0.058109839000  0.031530268000  0.015853420000
  0.256995880000  0.152973450000  0.083952532000  0.042633231000
  0.407046710000  0.252547090000  0.139757560000  0.070512457000
  0.321232480000  0.111337890000  0.042867329000  0.019673695000
  0.078376297000 -0.383920650000 -0.339405100000 -0.196451720000
 -0.012351900000 -0.559815170000 -0.490449460000 -0.275875250000
  0.001083053500 -0.193043190000  0.192296930000  0.189558960000
  0.005871419400 -0.002275313500  0.720615410000  0.698099640000
  0.003226457700 -0.000466265650  0.306966660000  0.091839608000
 -0.002710095100 -0.000634104950  0.023591713000 -0.736442640000
 -0.001470873700 -0.001657165200  0.000646160990 -0.478880750000
 -0.000237332420 -0.000093923589 -0.000317460420 -0.058368384000
   11    2
  1.0628000000e3  2.4386000000e2
       1992.00000000
        606.10000000
        240.70000000
        108.30000000
         52.37000000
         25.83000000
         13.15000000
          6.63000000
          3.35100000
          1.62100000
          0.69880000
  0.014647938000  0.008570707400
  0.088906174000  0.053533897000
  0.275335600000  0.167424860000
  0.442322950000  0.257288950000
  0.313717490000  0.020554045000
  0.073392316000 -0.451799180000
 -0.000146530490 -0.494549550000
  0.000519374300 -0.144278720000
  0.000628885760 -0.005899709300
  0.000594528770 -0.000574586350
  0.000041174715  0.000212929160
    6    1
  1.4166000000e2
        315.10000000
        109.92000000
         46.81000000
         21.50000000
         10.12800000
          4.51800000
  0.023394647000
  0.128897070000
  0.330894010000
  0.443461920000
  0.284622250000
  0.058845287000
Spectral Representation Operator
Valence primitive basis
Exchange
1stOrder Relativistic Correction
MdQR(4K)-[Xe,4f,5d]
End of Spectral Representation Operator

/No.CG-AIMP.Seijo.14s10p12d9f3g.2s1p2d1f1g.ECP.34el.
L. Seijo, Z. Barandiaran, B. Ordejon. Mol. Phys. 101 (2003) 73-80. doi:10.1080/00268970210158740
NOBELIUM (14s,10p,12d,9f,3g) -> [2s,1p,2d,1f,1g]
********************************************************************************
*relativistic core=[Xe,4f], [6s5p6d4f1g] recommended
*
* NoQR3H NoQR3H-[Xe,4f]BkSOC (14s10p12d9f)
*
* core-AIMP: NoQR3H-[Xe,4f]
* mv+dw from NoQR(3H)-[Xe,4f,5d]
* v.basis.s: (14s10p12d9f) /recommended[6s5p6d4f]
*            s,p,f exponents from core [Xe,4f,5d]
*            d exponents and all coeficients optimized in
*                  NoQR3H NoQR3H-[Xe,4f] (14s10p12d9f)
*     BkSOC: 3.0*Bk(3d,4d),3.0*Bk(4f) rather than so-correct the basis set
********************************************************************************
    34.0   4
* s-type functions
   14    2
   55862222.30000000
    3273682.47000000
     302677.51100000
      37699.73290000
       5007.13864000
        348.69102400
         63.77703750
         15.22383030
          4.77328825
          3.32395882
       8544.96375e-4
       3959.10336e-4
          0.09031440
       3473.09277e-5
 -0.000059512333  0.000016097399
 -0.000356909011  0.000096539072
 -0.001691491100  0.000457536186
 -0.007506698450  0.002030223230
 -0.027181188700  0.007350251050
  0.117266094000 -0.031727459600
 -0.380637215000  0.103945137000
  0.893554639000 -0.251947507000
 -0.600800926000  0.186464770000
 -0.806661786000  0.251367068000
  0.943121125000 -0.420049140000
  0.448602476000 -0.337590840000
  0.012143943100  0.667489784000
 -0.002607042580  0.549777094000
* p-type functions
   10    1
      11037.74910000
       2225.12757000
        629.01145300
         86.63142890
         17.72665310
          5.32321809
          3.56237957
       8273.16428e-4
       3723.65614e-4
       1492.18069e-4
  0.002313029110
  0.014735454600
  0.042606329700
 -0.153143264000
  0.372556693000
 -0.230242870000
 -0.447540407000
  0.612994221000
  0.477482392000
  0.081021290600
* d-type functions
   12    2
       2792.29195000
        797.10478800
        294.17855200
        122.98202300
         27.23934360
         14.65877360
          5.80350868
          3.02344887
          1.43595018
       5365.91829e-4
       1862.73325e-4
       5836.23616e-5
  0.002314575690 -0.000495709758
  0.017903197400 -0.003813531530
  0.071446534500 -0.015339324300
  0.131835055000 -0.027933116300
 -0.293589652000  0.067683058100
 -0.254240221000  0.050454128700
  0.381227697000 -0.108308763000
  0.542757029000 -0.151379878000
  0.228692070000  0.039561952000
  0.019839053600  0.352047643000
 -0.001039221460  0.511563316000
  0.000368789535  0.355700660000
* f-type functions
    9    1
        411.18303500
        139.43383000
         57.05562050
         25.01509890
          5.53629202
          2.64961254
          1.24169396
       5548.38239e-4
          0.22261783
 -0.005374032340
 -0.036671129600
 -0.114520910000
 -0.160263083000
  0.294212164000
  0.411536439000
  0.326363582000
  0.171947767000
  0.046777298400
* g-type functions
    3    1
          4.79900000
          1.67400000
          0.53430000
  0.570379252000
  0.504809016000
  0.202541846000
********************************************************************************
* Core AIMP: NoQR3H NoQR3H-[Xe,4f]BkSOC (14s10p12d9f)
*
* Local Potential Parameters: (ECP convention)
*                     A(AIMP)=-Zeff*A(ECP)
********************************************************************************
M1
 15
  6.4057379000e5  1.6552375000e5  5.9118201000e4  2.2838462000e4  9.2554685000e3  3.7824256000e3  1.6280371000e3  7.8543584000e2  2.9787649000e2  1.5597870000e2 32.409296000000
 17.015856000000  7.419530300000  4.014518700000  0.036452100000
  0.027047632353  0.019899088824  0.029804550000  0.042144617647  0.053928697059  0.071906894118  0.124678761765  0.143711358824  0.126360058824  0.386759617647  0.577581264706
  0.151334735294  0.208541058824  0.036294779412  0.000006863691
M2
  0
COREREP
 1.0
PROJOP
    3
   17    5
  1.1136313000e4  2.1854013000e3  5.7624541000e2  1.5905205000e2 38.421193000000
   20177413.00000000
    1943261.90000000
     333527.76000000
      77935.93500000
      22297.00200000
       7391.39400000
       2748.83670000
       1124.24160000
        480.90761000
        223.54005000
         95.18506800
         50.54926300
         22.85442000
         12.90964000
          6.15047330
          3.40801950
          1.66500000
  0.005214236700  0.002315344400  0.001138296200  0.000602322640  0.000312669600
  0.015118144000  0.006793310100  0.003358325300  0.001775727500  0.000921979520
  0.037872248000  0.017487892000  0.008643463000  0.004585311400  0.002381466700
  0.087512075000  0.041542784000  0.020780921000  0.011008401000  0.005720028600
  0.184460060000  0.091998208000  0.046029191000  0.024527326000  0.012751946000
  0.324720110000  0.170740880000  0.087426840000  0.046510078000  0.024204923000
  0.382534300000  0.215940360000  0.109677320000  0.058988005000  0.030722007000
  0.198115210000  0.002140053600 -0.018525382000 -0.014436950000 -0.008129660800
 -0.004413227600 -0.494691500000 -0.445012480000 -0.273146110000 -0.148216540000
 -0.030662293000 -0.535366870000 -0.554370540000 -0.372095130000 -0.207298930000
  0.008617020900 -0.098314371000  0.465733400000  0.541843490000  0.350491420000
  0.025245050000  0.034823786000  0.793549940000  1.045274400000  0.719956370000
 -0.004886026000 -0.012458528000  0.144899970000 -0.491505390000 -0.564126330000
 -0.013354328000 -0.002569483100 -0.028425751000 -0.967717510000 -1.375543600000
  0.000854351260 -0.002541948200  0.008495969300 -0.135322160000  0.518507640000
  0.004479384500  0.004385506700 -0.001508155400  0.009885776600  1.024307600000
  0.000670388640  0.000146463330  0.000976692550 -0.001201698600  0.167403450000
   14    4
  1.7522990000e3  4.5755693000e2  1.1991639000e2 25.651915000000
      43990.00000000
       9621.00000000
       3070.00000000
       1183.50000000
        513.20000000
        240.80000000
        115.90000000
         59.55000000
         30.58000000
         16.36400000
          8.77000000
          4.72000000
          2.43200000
          1.12290000
  0.005293529000  0.002941880000  0.001584067900  0.000796835120
  0.028064002000  0.015703320000  0.008490602500  0.004307841300
  0.101870080000  0.058744448000  0.031952813000  0.016135758000
  0.258485050000  0.154139930000  0.084818200000  0.043240522000
  0.407684150000  0.253001090000  0.140258960000  0.071068275000
  0.319687240000  0.108354350000  0.040782120000  0.018525920000
  0.076961036000 -0.388045010000 -0.344415510000 -0.200251040000
 -0.012633038000 -0.558416620000 -0.488836480000 -0.276190080000
  0.001157456100 -0.190084520000  0.202346120000  0.199703640000
  0.006154561800 -0.001262296000  0.721854490000  0.705089960000
  0.003156399400 -0.000608195720  0.300033530000  0.073201637000
 -0.002799112600 -0.000659783600  0.022161759000 -0.741720560000
 -0.001490973800 -0.001691804900  0.000651739100 -0.469254600000
 -0.000234232640 -0.000088859386 -0.000315896390 -0.056082219000
   11    2
  1.0923300000e3  2.5218000000e2
       2025.00000000
        615.90000000
        244.60000000
        110.10000000
         53.26000000
         26.30000000
         13.42000000
          6.78300000
          3.43200000
          1.66200000
          0.71620000
  0.014898790000  0.008754505800
  0.090117333000  0.054481091000
  0.277754500000  0.169566400000
  0.443114800000  0.258061070000
  0.310934890000  0.015305685000
  0.071489128000 -0.457374710000
 -0.000304993580 -0.490288450000
  0.000507485110 -0.140047970000
  0.000673388830 -0.005633409200
  0.000588709210 -0.000536782560
  0.000042685815  0.000194087070
    6    1
  1.4775000000e2
        326.10000000
        113.86000000
         48.55000000
         22.33000000
         10.53300000
          4.70200000
  0.023046446000
  0.127459770000
  0.329125300000
  0.444163080000
  0.286015970000
  0.058915331000
Spectral Representation Operator
Valence primitive basis
Exchange
1stOrder Relativistic Correction
NoQR(3H)-[Xe,4f,5d]
End of Spectral Representation Operator

/Lr.CG-AIMP.Seijo.14s10p12d9f3g.2s1p2d1f1g.ECP.35el.
L. Seijo, Z. Barandiaran, B. Ordejon. Mol. Phys. 101 (2003) 73-80. doi:10.1080/00268970210158740
LAWRENCIUM (14s,10p,12d,9f,3g) -> [2s,1p,2d,1f,1g]
********************************************************************************
*relativistic core=[Xe,4f], [6s5p6d4f1g] recommended
*
* LrQR2D LrQR2D-[Xe,4f]BkSOC (14s10p12d9f)
*
* core-AIMP: LrQR2D-[Xe,4f]
* mv+dw from LrQR(2D)-[Xe,4f,5d]
* v.basis.s: (14s10p12d9f) /recommended[6s5p6d4f]
*            s,p,f exponents from core [Xe,4f,5d]
*            d exponents and all coeficients optimized in
*                  LrQR2D LrQR2D-[Xe,4f] (14s10p12d9f)
*     BkSOC: 3.0*Bk(3d,4d),3.0*Bk(4f) rather than so-correct the basis set
********************************************************************************
    35.0   4
* s-type functions
   14    2
   62503247.20000000
    3638942.64000000
     332360.03700000
      40668.36190000
       5172.72205000
        359.00605400
         66.01698870
         15.76165060
          4.95153191
          3.42057356
       8942.62612e-4
       4142.57844e-4
       9438.27455e-5
       3628.55981e-5
 -0.000059478870  0.000016114300
 -0.000356378023  0.000096550752
 -0.001686186270  0.000456839572
 -0.007510823530  0.002034538730
 -0.028059280800  0.007599478360
  0.117483028000 -0.031825261900
 -0.381500498000  0.104326094000
  0.899425205000 -0.254068773000
 -0.638455336000  0.198344899000
 -0.775949688000  0.242397405000
  0.936690908000 -0.415856962000
  0.456923461000 -0.345262108000
  0.012680400400  0.668532281000
 -0.002718535310  0.550144720000
* p-type functions
   10    1
      11414.14150000
       2294.56296000
        647.05025300
         88.96062550
         18.25933340
          5.65695701
          3.74222237
       8509.73767e-4
       3817.75264e-4
       1525.37284e-4
  0.002335149850
  0.014845814400
  0.042961488400
 -0.154104956000
  0.375233897000
 -0.206572281000
 -0.470094271000
  0.614176598000
  0.475574956000
  0.080075414700
* d-type functions
   12    2
       2867.51506000
        817.92812400
        301.73440000
        126.14495700
         28.00433300
         15.18227350
          5.91172164
          3.06289803
          1.44363441
       5193.23017e-4
       1740.10023e-4
       5279.40328e-5
  0.002331914150 -0.000457686734
  0.018024099100 -0.003520032160
  0.071980358400 -0.014162254400
  0.132920188000 -0.025824260600
 -0.295057204000  0.062531791300
 -0.253730374000  0.045659743100
  0.397054911000 -0.102729292000
  0.539758380000 -0.137586225000
  0.217317025000  0.046143803600
  0.016919100100  0.342512588000
 -0.001056737770  0.507416502000
  0.000350838156  0.379774711000
* f-type functions
    9    1
        425.08515400
        144.16592800
         59.02646920
         25.91235590
          5.76302721
          2.76539042
          1.29965921
       5824.92432e-4
       2344.95676e-4
 -0.005371148150
 -0.036811263500
 -0.115571519000
 -0.162538003000
  0.296741612000
  0.411425140000
  0.324312426000
  0.170271710000
  0.046003328300
* g-type functions
    3    1
          4.99300000
          1.74600000
          0.55960000
  0.574096713000
  0.501937071000
  0.199428325000
********************************************************************************
* Core AIMP: LrQR2D LrQR2D-[Xe,4f]BkSOC (14s10p12d9f)
*
* Local Potential Parameters: (ECP convention)
*                     A(AIMP)=-Zeff*A(ECP)
********************************************************************************
M1
 15
  6.6480089000e5  1.7135755000e5  6.1045421000e4  2.3498192000e4  9.4809565000e3  3.8640216000e3  1.6650306000e3  8.0451774000e2  3.0558229000e2  1.6033862000e2 33.334756000000
 17.326105000000  7.633071300000  4.122577700000  0.007611000000
  0.026257276571  0.019353377429  0.029007945714  0.041072311429  0.052574700000  0.070231051429  0.121442360000  0.138718471429  0.122848142857  0.375334771429  0.564407028571
  0.145561311429  0.202095285714  0.033947528571  0.000005596064
M2
  0
COREREP
 1.0
PROJOP
    3
   17    5
  1.1422036000e4  2.2504788000e3  5.9478244000e2  1.6479089000e2 39.919837000000
   20957413.00000000
    2013261.90000000
     344227.76000000
      80105.93500000
      22887.00200000
       7586.39400000
       2819.83670000
       1151.64170000
        494.00761000
        229.84005000
         97.76506800
         51.92926300
         23.44442000
         13.25864000
          6.30247330
          3.48401950
          1.70200000
  0.005460964800  0.002438587800  0.001199808000  0.000635902490  0.000331276930
  0.015671400000  0.007082355100  0.003503825700  0.001855762200  0.000967172480
  0.038980147000  0.018097762000  0.008951717700  0.004756554600  0.002478927900
  0.089268109000  0.042625513000  0.021340982000  0.011324155000  0.005907083400
  0.186144410000  0.093319966000  0.046720208000  0.024936953000  0.013008000000
  0.324992160000  0.171513740000  0.087879059000  0.046822183000  0.024466794000
  0.381348560000  0.214258590000  0.108555480000  0.058447873000  0.030518757000
  0.196896490000 -0.002606199900 -0.022013240000 -0.016558843000 -0.009247415400
 -0.005444860300 -0.495440480000 -0.446915490000 -0.274936110000 -0.149921700000
 -0.031066976000 -0.532376420000 -0.548408610000 -0.368458300000 -0.205803970000
  0.008976586500 -0.097305507000  0.471644400000  0.551513900000  0.358149650000
  0.025907895000  0.035446541000  0.789131440000  1.039105100000  0.720541450000
 -0.005387913300 -0.012875610000  0.142766170000 -0.507997040000 -0.591831540000
 -0.013603116000 -0.002717493400 -0.028848913000 -0.959313770000 -1.369088800000
  0.001101058500 -0.002388635600  0.008648604700 -0.130363430000  0.564177860000
  0.004537461100  0.004441449700 -0.001494333700  0.009909016200  1.002715800000
  0.000641250850  0.000126110560  0.000974703800 -0.001197125000  0.156361740000
   14    4
  1.7954560000e3  4.7038511000e2  1.2381381000e2 26.535041000000
      45550.00000000
       9941.00000000
       3170.00000000
       1221.90000000
        529.50000000
        248.20000000
        119.57000000
         61.42000000
         31.56000000
         16.88300000
          9.04700000
          4.87800000
          2.51400000
          1.16110000
  0.005319299900  0.002961522900  0.001598715300  0.000807463870
  0.028038089000  0.015725741000  0.008523294900  0.004340399800
  0.101318190000  0.058520409000  0.031910029000  0.016178035000
  0.256907970000  0.153418380000  0.084608953000  0.043293168000
  0.407065740000  0.252633030000  0.140357250000  0.071400845000
  0.321577690000  0.110887820000  0.042406781000  0.019394642000
  0.078227011000 -0.384102630000 -0.342016170000 -0.199728550000
 -0.012705993000 -0.560157600000 -0.492389310000 -0.279797910000
  0.000973076110 -0.192786970000  0.197550840000  0.198159830000
  0.006463953000 -0.001423692300  0.724798090000  0.712184470000
  0.003183729200 -0.000512051700  0.301077370000  0.071314936000
 -0.002861111000 -0.000737559800  0.022016106000 -0.743819450000
 -0.001541940700 -0.001724797800  0.000686488210 -0.467867880000
 -0.000238075580 -0.000094641707 -0.000321419700 -0.055970334000
   11    2
  1.1222400000e3  2.6064000000e2
       2096.00000000
        636.80000000
        252.70000000
        113.70000000
         55.01000000
         27.18000000
         13.89000000
          7.03600000
          3.56500000
          1.72800000
          0.74520000
  0.014643679000  0.008637131100
  0.088803080000  0.053881462000
  0.275262490000  0.168663790000
  0.442413080000  0.259011370000
  0.313774650000  0.019792145000
  0.073265143000 -0.454890300000
 -0.000324517670 -0.492620460000
  0.000529064080 -0.141763850000
  0.000679027390 -0.005940716000
  0.000611980570 -0.000534004640
  0.000043693132  0.000186095250
    6    1
  1.5496000000e2
        339.20000000
        118.46000000
         50.53000000
         23.26000000
         10.98500000
          4.90700000
  0.022443963000
  0.125165380000
  0.326472470000
  0.444937350000
  0.288699810000
  0.059689115000
Spectral Representation Operator
Valence primitive basis
Exchange
1stOrder Relativistic Correction
LrQR(2D)-[Xe,4f,5d]
End of Spectral Representation Operator
