************************************************************************
* This file is part of OpenMolcas.                                     *
*                                                                      *
* OpenMolcas is free software; you can redistribute it and/or modify   *
* it under the terms of the GNU Lesser General Public License, v. 2.1. *
* OpenMolcas is distributed in the hope that it will be useful, but it *
* is provided "as is" and without any express or implied warranties.   *
* For more details see the full text of the license in the file        *
* LICENSE or in <http://www.gnu.org/licenses/>.                        *
************************************************************************

#Hamiltonian NRH
#Nucleus UNK
#Contraction SEG
#AllElectron AE_

************************************************************************
* This file has been generated from TURBOMOLE basis set data:          *
*   https://cosmologic-services.de/basis-sets/basissets.php            *
************************************************************************

/H.def-SVP..4s1p.2s1p.
Unpublished
HYDROGEN (4s,1p) -> [2s,1p]
     1.0   1
* s-type functions
    4    2
       13.0107010000
        1.9622572000
        0.4445379600
        0.1219496200
   0.01968215800000   0.00000000000000
   0.13796524000000   0.00000000000000
   0.47831935000000   0.00000000000000
   0.00000000000000   1.00000000000000
* p-type functions
    1    1
        0.8000000000
   1.00000000000000

/He.def-SVP..4s1p.2s1p.
Unpublished
HELIUM (4s,1p) -> [2s,1p]
     2.0   1
* s-type functions
    4    2
       38.3549367370
        5.7689081479
        1.2399407035
     2975.7815953e-4
   0.02381428890500   0.00000000000000
   0.15490906777000   0.00000000000000
   0.46998096633000   0.00000000000000
   0.00000000000000   1.00000000000000
* p-type functions
    1    1
        1.0000000000
   1.00000000000000

/Li.def-SVP.Schafer.7s2p.3s1p.
A. Schafer, H. Horn, R. Ahlrichs. J. Chem. Phys. 97 (1992) 2571-2577. doi:10.1063/1.463096
LITHIUM (7s,2p) -> [3s,1p]
     3.0   1
* s-type functions
    7    3
      266.2778551600
       40.0697834470
        9.0559944389
        2.4503009051
     7220.9571855e-4
     5281.0884721e-5
     2096.0948798e-5
   0.00649201503250   0.00000000000000   0.00000000000000
   0.04774786321500   0.00000000000000   0.00000000000000
   0.20268796111000   0.00000000000000   0.00000000000000
   0.48606574817000   0.00000000000000   0.00000000000000
   0.43626977955000   0.00000000000000   0.00000000000000
   0.00000000000000   1.00000000000000   0.00000000000000
   0.00000000000000   0.00000000000000   1.00000000000000
* p-type functions
    2    1
        0.4500000000
        0.1000000000
   0.37100000000000
   1.00000000000000

/Be.def-SVP.Schafer.7s4p.3s2p.
A. Schafer, H. Horn, R. Ahlrichs. J. Chem. Phys. 97 (1992) 2571-2577. doi:10.1063/1.463096
BERYLLIUM (7s,4p) -> [3s,2p]
     4.0   1
* s-type functions
    7    3
      515.1861612500
       77.5110375950
       17.5524816930
        4.8028940596
        1.4516214316
        0.1328163362
     4583.7372213e-5
   0.00556153079830   0.00000000000000   0.00000000000000
   0.04119006806200   0.00000000000000   0.00000000000000
   0.17913378108000   0.00000000000000   0.00000000000000
   0.44736716455000   0.00000000000000   0.00000000000000
   0.42009581920000   0.00000000000000   0.00000000000000
   0.00000000000000   1.00000000000000   0.00000000000000
   0.00000000000000   0.00000000000000   1.00000000000000
* p-type functions
    4    2
        3.6316917145
     7169.5694366e-4
        0.1954193286
      605.1546589e-4
  -0.02903399830500   0.00000000000000
  -0.16877854032000   0.00000000000000
  -0.51403419628000   0.00000000000000
   0.00000000000000   1.00000000000000

/B.def-SVP.Schafer.7s4p1d.3s2p1d.
A. Schafer, H. Horn, R. Ahlrichs. J. Chem. Phys. 97 (1992) 2571-2577. doi:10.1063/1.463096
BORON (7s,4p,1d) -> [3s,2p,1d]
     5.0   2
* s-type functions
    7    3
      839.3183008600
      126.2646484300
       28.6206007630
        7.8793722710
        2.4088857172
     2510.5109036e-4
     8364.8866069e-5
  -0.00559292010740   0.00000000000000   0.00000000000000
  -0.04156552077100   0.00000000000000   0.00000000000000
  -0.18299816983000   0.00000000000000   0.00000000000000
  -0.46540391866000   0.00000000000000   0.00000000000000
  -0.44173884791000   0.00000000000000   0.00000000000000
   0.00000000000000   1.00000000000000   0.00000000000000
   0.00000000000000   0.00000000000000   1.00000000000000
* p-type functions
    4    2
        6.0332223619
        1.2499157866
        0.3387167635
     9641.5632351e-5
  -0.03560367245600   0.00000000000000
  -0.19895775769000   0.00000000000000
  -0.50850202618000   0.00000000000000
   0.00000000000000   1.00000000000000
* d-type functions
    1    1
        0.5000000000
   1.00000000000000

/C.def-SVP.Schafer.7s4p1d.3s2p1d.
A. Schafer, H. Horn, R. Ahlrichs. J. Chem. Phys. 97 (1992) 2571-2577. doi:10.1063/1.463096
CARBON (7s,4p,1d) -> [3s,2p,1d]
     6.0   2
* s-type functions
    7    3
     1238.4016938000
      186.2900499200
       42.2511763460
       11.6765579320
        3.5930506482
     4024.5147363e-4
     1309.0182668e-4
   0.00545688320820   0.00000000000000   0.00000000000000
   0.04063840921100   0.00000000000000   0.00000000000000
   0.18025593888000   0.00000000000000   0.00000000000000
   0.46315121755000   0.00000000000000   0.00000000000000
   0.44087173314000   0.00000000000000   0.00000000000000
   0.00000000000000   1.00000000000000   0.00000000000000
   0.00000000000000   0.00000000000000   1.00000000000000
* p-type functions
    4    2
        9.4680970621
        2.0103545142
     5477.1004707e-4
     1526.8613795e-4
   0.03838787172800   0.00000000000000
   0.21117025112000   0.00000000000000
   0.51328172114000   0.00000000000000
   0.00000000000000   1.00000000000000
* d-type functions
    1    1
        0.8000000000
   1.00000000000000

/N.def-SVP.Schafer.7s4p1d.3s2p1d.
A. Schafer, H. Horn, R. Ahlrichs. J. Chem. Phys. 97 (1992) 2571-2577. doi:10.1063/1.463096
NITROGEN (7s,4p,1d) -> [3s,2p,1d]
     7.0   2
* s-type functions
    7    3
     1712.8415853000
      257.6481267700
       58.4582458530
       16.1983679050
        5.0052600809
     5873.1856571e-4
     1876.4592253e-4
  -0.00539341253050   0.00000000000000   0.00000000000000
  -0.04022158111800   0.00000000000000   0.00000000000000
  -0.17931144990000   0.00000000000000   0.00000000000000
  -0.46376317823000   0.00000000000000   0.00000000000000
  -0.44171422662000   0.00000000000000   0.00000000000000
   0.00000000000000   1.00000000000000   0.00000000000000
   0.00000000000000   0.00000000000000   1.00000000000000
* p-type functions
    4    2
       13.5714702330
        2.9257372874
     7992.7750754e-4
     2195.4348034e-4
  -0.04007239885200   0.00000000000000
  -0.21807045028000   0.00000000000000
  -0.51294466049000   0.00000000000000
   0.00000000000000   1.00000000000000
* d-type functions
    1    1
        1.0000000000
   1.00000000000000

/O.def-SVP.Schafer.7s4p1d.3s2p1d.
A. Schafer, H. Horn, R. Ahlrichs. J. Chem. Phys. 97 (1992) 2571-2577. doi:10.1063/1.463096
OXYGEN (7s,4p,1d) -> [3s,2p,1d]
     8.0   2
* s-type functions
    7    3
     2266.1767785000
      340.8701019100
       77.3631351670
       21.4796449400
        6.6589433124
     8097.5975668e-4
     2553.0772234e-4
  -0.00534318099260   0.00000000000000   0.00000000000000
  -0.03989003923000   0.00000000000000   0.00000000000000
  -0.17853911985000   0.00000000000000   0.00000000000000
  -0.46427684959000   0.00000000000000   0.00000000000000
  -0.44309745172000   0.00000000000000   0.00000000000000
   0.00000000000000   1.00000000000000   0.00000000000000
   0.00000000000000   0.00000000000000   1.00000000000000
* p-type functions
    4    2
       17.7215043170
        3.8635505440
        1.0480920883
     2764.1544411e-4
   0.04339457319300   0.00000000000000
   0.23094120765000   0.00000000000000
   0.51375311064000   0.00000000000000
   0.00000000000000   1.00000000000000
* d-type functions
    1    1
        1.2000000000
   1.00000000000000

/F.def-SVP.Schafer.7s4p1d.3s2p1d.
A. Schafer, H. Horn, R. Ahlrichs. J. Chem. Phys. 97 (1992) 2571-2577. doi:10.1063/1.463096
FLUORINE (7s,4p,1d) -> [3s,2p,1d]
     9.0   2
* s-type functions
    7    3
     2894.8325990000
      435.4193912000
       98.8433288660
       27.4851980010
        8.5405498171
        1.0654578038
     3324.7346748e-4
  -0.00534082555150   0.00000000000000   0.00000000000000
  -0.03990425886600   0.00000000000000   0.00000000000000
  -0.17912768038000   0.00000000000000   0.00000000000000
  -0.46758090825000   0.00000000000000   0.00000000000000
  -0.44653131020000   0.00000000000000   0.00000000000000
   0.00000000000000   1.00000000000000   0.00000000000000
   0.00000000000000   0.00000000000000   1.00000000000000
* p-type functions
    4    2
       22.6966339240
        4.9872339257
        1.3491613954
     3482.9881977e-4
  -0.04521287443600   0.00000000000000
  -0.23754317067000   0.00000000000000
  -0.51287353587000   0.00000000000000
   0.00000000000000   1.00000000000000
* d-type functions
    1    1
        1.4000000000
   1.00000000000000

/Ne.def-SVP.Schafer.7s4p1d.3s2p1d.
A. Schafer, H. Horn, R. Ahlrichs. J. Chem. Phys. 97 (1992) 2571-2577. doi:10.1063/1.463096
NEON (7s,4p,1d) -> [3s,2p,1d]
    10.0   2
* s-type functions
    7    3
     3598.9736625000
      541.3207311200
      122.9045006200
       34.2166170220
       10.6505841240
        1.3545953960
     4191.9362639e-4
  -0.00532592970030   0.00000000000000   0.00000000000000
  -0.03981741796900   0.00000000000000   0.00000000000000
  -0.17914358188000   0.00000000000000   0.00000000000000
  -0.46893582977000   0.00000000000000   0.00000000000000
  -0.44782537577000   0.00000000000000   0.00000000000000
   0.00000000000000   1.00000000000000   0.00000000000000
   0.00000000000000   0.00000000000000   1.00000000000000
* p-type functions
    4    2
       28.4240537850
        6.2822510953
        1.6978715079
     4330.0700172e-4
  -0.04603194479500   0.00000000000000
  -0.23993183041000   0.00000000000000
  -0.50871724964000   0.00000000000000
   0.00000000000000   1.00000000000000
* d-type functions
    1    1
        1.8880000000
   1.00000000000000

/Na.def-SVP.Schafer.10s6p.4s2p.
A. Schafer, H. Horn, R. Ahlrichs. J. Chem. Phys. 97 (1992) 2571-2577. doi:10.1063/1.463096
SODIUM (10s,6p) -> [4s,2p]
    11.0   1
* s-type functions
   10    4
     4098.2003908000
      616.4937403100
      139.9664400100
       39.0734410510
       11.9298472050
       20.6599660300
        1.9838860978
     6483.6323942e-4
     5244.3967404e-5
     2804.8160742e-5
  -0.00585359118790   0.00000000000000   0.00000000000000   0.00000000000000
  -0.04364716187200   0.00000000000000   0.00000000000000   0.00000000000000
  -0.19431465884000   0.00000000000000   0.00000000000000   0.00000000000000
  -0.48685065731000   0.00000000000000   0.00000000000000   0.00000000000000
  -0.41881705137000   0.00000000000000   0.00000000000000   0.00000000000000
   0.00000000000000   0.08594968985400   0.00000000000000   0.00000000000000
   0.00000000000000  -0.56359144041000   0.00000000000000   0.00000000000000
   0.00000000000000  -0.51954009048000   0.00000000000000   0.00000000000000
   0.00000000000000   0.00000000000000   1.00000000000000   0.00000000000000
   0.00000000000000   0.00000000000000   0.00000000000000   1.00000000000000
* p-type functions
    6    2
       75.4018620170
       17.2748189780
        5.1842347425
        1.6601211973
     5123.2528958e-4
        0.0520000000
   0.01543536253240   0.00000000000000
   0.09973829318400   0.00000000000000
   0.31209593965900   0.00000000000000
   0.49295674807400   0.00000000000000
   0.32420398318000   0.00000000000000
   0.00000000000000   1.00000000000000

/Mg.def-SVP.Schafer.10s6p.4s2p.
A. Schafer, H. Horn, R. Ahlrichs. J. Chem. Phys. 97 (1992) 2571-2577. doi:10.1063/1.463096
MAGNESIUM (10s,6p) -> [4s,2p]
    12.0   1
* s-type functions
   10    4
     4953.8339196000
      745.1804415400
      169.2160497200
       47.3006720190
       14.4613369730
       24.7681747890
        2.4940945349
     8780.7584533e-4
     8721.2782497e-5
      335.9929378e-4
  -0.00577789674980   0.00000000000000   0.00000000000000   0.00000000000000
  -0.04312476108200   0.00000000000000   0.00000000000000   0.00000000000000
  -0.19268216987000   0.00000000000000   0.00000000000000   0.00000000000000
  -0.48641439116000   0.00000000000000   0.00000000000000   0.00000000000000
  -0.42550894077000   0.00000000000000   0.00000000000000   0.00000000000000
   0.00000000000000   0.08795696998400   0.00000000000000   0.00000000000000
   0.00000000000000  -0.55165058128000   0.00000000000000   0.00000000000000
   0.00000000000000  -0.53443294833000   0.00000000000000   0.00000000000000
   0.00000000000000   0.00000000000000   1.00000000000000   0.00000000000000
   0.00000000000000   0.00000000000000   0.00000000000000   1.00000000000000
* p-type functions
    6    2
       98.0530104940
       22.5869322770
        6.8391509842
        2.2332843818
     7160.6599387e-4
     1891.4796195e-4
  -0.01448056460100   0.00000000000000
  -0.09549575078700   0.00000000000000
  -0.30787672651000   0.00000000000000
  -0.49936292886000   0.00000000000000
  -0.31503476213000   0.00000000000000
   0.00000000000000   1.00000000000000

/Al.def-SVP.Schafer.10s7p1d.4s3p1d.
A. Schafer, H. Horn, R. Ahlrichs. J. Chem. Phys. 97 (1992) 2571-2577. doi:10.1063/1.463096
ALUMINIUM (10s,7p,1d) -> [4s,3p,1d]
    13.0   2
* s-type functions
   10    4
     5887.5727030000
      885.6122599600
      201.1360489900
       56.2849746740
       17.2295512430
       29.3402499220
        3.0439630420
        1.1285539518
        0.1423417516
     5440.0192313e-5
   0.00134833479870   0.00000000000000   0.00000000000000   0.00000000000000
   0.01007157680900   0.00000000000000   0.00000000000000   0.00000000000000
   0.04513245405600   0.00000000000000   0.00000000000000   0.00000000000000
   0.11461268043000   0.00000000000000   0.00000000000000   0.00000000000000
   0.10159608943000   0.00000000000000   0.00000000000000   0.00000000000000
   0.00000000000000   0.06934745420800   0.00000000000000   0.00000000000000
   0.00000000000000  -0.42528117679000   0.00000000000000   0.00000000000000
   0.00000000000000  -0.41449832210000   0.00000000000000   0.00000000000000
   0.00000000000000   0.00000000000000   1.00000000000000   0.00000000000000
   0.00000000000000   0.00000000000000   0.00000000000000   1.00000000000000
* p-type functions
    7    3
      145.1191880900
       33.7178948330
       10.3698630830
        3.5135616036
        1.1980050273
     2658.3005913e-4
     7100.3361994e-5
   0.00639633731340   0.00000000000000   0.00000000000000
   0.04418935996500   0.00000000000000   0.00000000000000
   0.15581575993000   0.00000000000000   0.00000000000000
   0.28635286951000   0.00000000000000   0.00000000000000
   0.22921423248000   0.00000000000000   0.00000000000000
   0.00000000000000   1.00000000000000   0.00000000000000
   0.00000000000000   0.00000000000000   1.00000000000000
* d-type functions
    1    1
        0.3000000000
   1.00000000000000

/Si.def-SVP.Schafer.10s7p1d.4s3p1d.
A. Schafer, H. Horn, R. Ahlrichs. J. Chem. Phys. 97 (1992) 2571-2577. doi:10.1063/1.463096
SILICON (10s,7p,1d) -> [4s,3p,1d]
    14.0   2
* s-type functions
   10    4
     6903.7118686000
     1038.4346419000
      235.8758148000
       66.0693851690
       20.2479457610
       34.3534817300
        3.6370788192
        1.4002048599
     2048.4414805e-4
     7799.4095468e-5
   0.00133739629950   0.00000000000000   0.00000000000000   0.00000000000000
   0.00999665462410   0.00000000000000   0.00000000000000   0.00000000000000
   0.04491016510100   0.00000000000000   0.00000000000000   0.00000000000000
   0.11463638540000   0.00000000000000   0.00000000000000   0.00000000000000
   0.10280063858000   0.00000000000000   0.00000000000000   0.00000000000000
   0.00000000000000   0.07083728501000   0.00000000000000   0.00000000000000
   0.00000000000000  -0.43028836252000   0.00000000000000   0.00000000000000
   0.00000000000000  -0.41382774969000   0.00000000000000   0.00000000000000
   0.00000000000000   0.00000000000000   1.00000000000000   0.00000000000000
   0.00000000000000   0.00000000000000   0.00000000000000   1.00000000000000
* p-type functions
    7    3
      179.8390737300
       41.9072588460
       12.9552943670
        4.4383267393
        1.5462247904
     3560.7612302e-4
     1000.8513762e-4
   0.00619166564620   0.00000000000000   0.00000000000000
   0.04339943198200   0.00000000000000   0.00000000000000
   0.15632019351000   0.00000000000000   0.00000000000000
   0.29419996982000   0.00000000000000   0.00000000000000
   0.23536823814000   0.00000000000000   0.00000000000000
   0.00000000000000   1.00000000000000   0.00000000000000
   0.00000000000000   0.00000000000000   1.00000000000000
* d-type functions
    1    1
        0.3500000000
   1.00000000000000

/P.def-SVP.Schafer.10s7p1d.4s3p1d.
A. Schafer, H. Horn, R. Ahlrichs. J. Chem. Phys. 97 (1992) 2571-2577. doi:10.1063/1.463096
PHOSPHORUS (10s,7p,1d) -> [4s,3p,1d]
    15.0   2
* s-type functions
   10    4
     8002.4795106000
     1203.6813590000
      273.4422703100
       76.6555415170
       23.5169274350
       39.7916834390
        4.2770343323
        1.6940256888
     2756.7674644e-4
     1049.5590099e-4
   0.00575034893020   0.00000000000000   0.00000000000000   0.00000000000000
   0.04300762895900   0.00000000000000   0.00000000000000   0.00000000000000
   0.19363986252000   0.00000000000000   0.00000000000000   0.00000000000000
   0.49651693399000   0.00000000000000   0.00000000000000   0.00000000000000
   0.44983262479000   0.00000000000000   0.00000000000000   0.00000000000000
   0.00000000000000   0.09518812978900   0.00000000000000   0.00000000000000
   0.00000000000000  -0.57649840368000   0.00000000000000   0.00000000000000
   0.00000000000000  -0.54239583865000   0.00000000000000   0.00000000000000
   0.00000000000000   0.00000000000000   1.00000000000000   0.00000000000000
   0.00000000000000   0.00000000000000   0.00000000000000   1.00000000000000
* p-type functions
    7    3
      219.5075582300
       51.2741550300
       15.9215958920
        5.5069913481
        1.9537719426
     4780.3397932e-4
     1365.7952621e-4
   0.00921005652570   0.00000000000000   0.00000000000000
   0.06540976574500   0.00000000000000   0.00000000000000
   0.24033730279000   0.00000000000000   0.00000000000000
   0.46318321788000   0.00000000000000   0.00000000000000
   0.37392563382000   0.00000000000000   0.00000000000000
   0.00000000000000   1.00000000000000   0.00000000000000
   0.00000000000000   0.00000000000000   1.00000000000000
* d-type functions
    1    1
        0.4500000000
   1.00000000000000

/S.def-SVP.Schafer.10s7p1d.4s3p1d.
A. Schafer, H. Horn, R. Ahlrichs. J. Chem. Phys. 97 (1992) 2571-2577. doi:10.1063/1.463096
SULFUR (10s,7p,1d) -> [4s,3p,1d]
    16.0   2
* s-type functions
   10    4
     9184.9303010000
     1381.5105503000
      313.8714758000
       88.0538706230
       27.0399149050
       45.6487313030
        4.9664522326
        2.0116242047
     3566.1077013e-4
     1350.7221477e-4
  -0.00222943877560   0.00000000000000   0.00000000000000   0.00000000000000
  -0.01668302993700   0.00000000000000   0.00000000000000   0.00000000000000
  -0.07526243611600   0.00000000000000   0.00000000000000   0.00000000000000
  -0.19376827038000   0.00000000000000   0.00000000000000   0.00000000000000
  -0.17718020803000   0.00000000000000   0.00000000000000   0.00000000000000
   0.00000000000000  -0.10736062573000   0.00000000000000   0.00000000000000
   0.00000000000000   0.65066293018000   0.00000000000000   0.00000000000000
   0.00000000000000   0.59712155354000   0.00000000000000   0.00000000000000
   0.00000000000000   0.00000000000000   1.00000000000000   0.00000000000000
   0.00000000000000   0.00000000000000   0.00000000000000   1.00000000000000
* p-type functions
    7    3
      261.9823343900
       61.3068947360
       19.1037298870
        6.6567720378
        2.3959635161
     6177.6161679e-4
     1699.3376871e-4
  -0.00927299298220   0.00000000000000   0.00000000000000
  -0.06654766924100   0.00000000000000   0.00000000000000
  -0.24828595903000   0.00000000000000   0.00000000000000
  -0.48703847402000   0.00000000000000   0.00000000000000
  -0.39337850312000   0.00000000000000   0.00000000000000
   0.00000000000000   1.00000000000000   0.00000000000000
   0.00000000000000   0.00000000000000   1.00000000000000
* d-type functions
    1    1
        0.5500000000
   1.00000000000000

/Cl.def-SVP.Schafer.10s7p1d.4s3p1d.
A. Schafer, H. Horn, R. Ahlrichs. J. Chem. Phys. 97 (1992) 2571-2577. doi:10.1063/1.463096
CHLORINE (10s,7p,1d) -> [4s,3p,1d]
    17.0   2
* s-type functions
   10    4
    10449.8275660000
     1571.7365221000
      357.1206552300
      100.2518593500
       30.8127275540
       51.9237894340
        5.7045760975
        2.3508376809
     4460.5124672e-4
        0.1684885619
   0.00197083624840   0.00000000000000   0.00000000000000   0.00000000000000
   0.01475472797700   0.00000000000000   0.00000000000000   0.00000000000000
   0.06667911287500   0.00000000000000   0.00000000000000   0.00000000000000
   0.17228924084000   0.00000000000000   0.00000000000000   0.00000000000000
   0.15883786100000   0.00000000000000   0.00000000000000   0.00000000000000
   0.00000000000000  -0.10009298909000   0.00000000000000   0.00000000000000
   0.00000000000000   0.60841752753000   0.00000000000000   0.00000000000000
   0.00000000000000   0.54352153355000   0.00000000000000   0.00000000000000
   0.00000000000000   0.00000000000000   1.00000000000000   0.00000000000000
   0.00000000000000   0.00000000000000   0.00000000000000   1.00000000000000
* p-type functions
    7    3
      307.6679056900
       72.1020155150
       22.5326802620
        7.8991765444
        2.8767268321
     7745.9363955e-4
     2103.7699698e-4
  -0.00878014841180   0.00000000000000   0.00000000000000
  -0.06356335547100   0.00000000000000   0.00000000000000
  -0.24016428276000   0.00000000000000   0.00000000000000
  -0.47798866557000   0.00000000000000   0.00000000000000
  -0.38515850005000   0.00000000000000   0.00000000000000
   0.00000000000000   1.00000000000000   0.00000000000000
   0.00000000000000   0.00000000000000   1.00000000000000
* d-type functions
    1    1
        0.6500000000
   1.00000000000000

/Ar.def-SVP.Schafer.10s7p1d.4s3p1d.
A. Schafer, H. Horn, R. Ahlrichs. J. Chem. Phys. 97 (1992) 2571-2577. doi:10.1063/1.463096
ARGON (10s,7p,1d) -> [4s,3p,1d]
    18.0   2
* s-type functions
   10    4
    11797.1197650000
     1774.3522753000
      403.1887573300
      113.2493399900
       34.8352981930
       58.6147750420
        6.4922045078
        2.7117014403
     5441.2974538e-4
     2051.7411136e-4
   0.00202144799730   0.00000000000000   0.00000000000000   0.00000000000000
   0.01513985268800   0.00000000000000   0.00000000000000   0.00000000000000
   0.06852540087300   0.00000000000000   0.00000000000000   0.00000000000000
   0.17762929207000   0.00000000000000   0.00000000000000   0.00000000000000
   0.16496495001000   0.00000000000000   0.00000000000000   0.00000000000000
   0.00000000000000  -0.10343394000000   0.00000000000000   0.00000000000000
   0.00000000000000   0.63133365899000   0.00000000000000   0.00000000000000
   0.00000000000000   0.54887572301000   0.00000000000000   0.00000000000000
   0.00000000000000   0.00000000000000   1.00000000000000   0.00000000000000
   0.00000000000000   0.00000000000000   0.00000000000000   1.00000000000000
* p-type functions
    7    3
      356.2870725600
       83.5931328660
       26.1867040290
        9.2257275925
        3.3922754954
        0.9474053401
     2565.9135062e-4
  -0.00873217832710   0.00000000000000   0.00000000000000
  -0.06368031744400   0.00000000000000   0.00000000000000
  -0.24311906886000   0.00000000000000   0.00000000000000
  -0.48956069653000   0.00000000000000   0.00000000000000
  -0.39229190040000   0.00000000000000   0.00000000000000
   0.00000000000000   1.00000000000000   0.00000000000000
   0.00000000000000   0.00000000000000   1.00000000000000
* d-type functions
    1    1
        0.6960000000
   1.00000000000000

/K.def-SVP.Schafer.14s9p.5s3p.
A. Schafer, H. Horn, R. Ahlrichs. J. Chem. Phys. 97 (1992) 2571-2577. doi:10.1063/1.463096
POTASSIUM (14s,9p) -> [5s,3p]
    19.0   1
* s-type functions
   14    5
    31478.7467640000
     4726.8876066000
     1075.4345353000
      303.3981102300
       98.3271128310
       33.6362221770
       65.6392099620
        7.3162592218
        2.8902580135
        4.5459748965
     7040.4124062e-4
     2826.6888959e-4
      290.5816402e-4
     1211.1638157e-5
   0.00398386539940   0.00000000000000   0.00000000000000   0.00000000000000   0.00000000000000
   0.03050175976200   0.00000000000000   0.00000000000000   0.00000000000000   0.00000000000000
   0.15073752622000   0.00000000000000   0.00000000000000   0.00000000000000   0.00000000000000
   0.51912939801000   0.00000000000000   0.00000000000000   0.00000000000000   0.00000000000000
   1.03669570050000   0.00000000000000   0.00000000000000   0.00000000000000   0.00000000000000
   0.76398963199000   0.00000000000000   0.00000000000000   0.00000000000000   0.00000000000000
   0.00000000000000  -0.28242617106000   0.00000000000000   0.00000000000000   0.00000000000000
   0.00000000000000   1.69149358600000   0.00000000000000   0.00000000000000   0.00000000000000
   0.00000000000000   1.29653319530000   0.00000000000000   0.00000000000000   0.00000000000000
   0.00000000000000   0.00000000000000  -0.00763435552730   0.00000000000000   0.00000000000000
   0.00000000000000   0.00000000000000   0.02563571896000   0.00000000000000   0.00000000000000
   0.00000000000000   0.00000000000000   0.01660685920800   0.00000000000000   0.00000000000000
   0.00000000000000   0.00000000000000   0.00000000000000   1.00000000000000   0.00000000000000
   0.00000000000000   0.00000000000000   0.00000000000000   0.00000000000000   1.00000000000000
* p-type functions
    9    3
      361.2249215400
       84.6702221660
       26.4690882360
        9.2658077615
        3.3423388293
        1.5100876104
     5656.8375163e-4
     2081.7008495e-4
        0.0417370000
   0.02090647982300   0.00000000000000   0.00000000000000
   0.15043641740000   0.00000000000000   0.00000000000000
   0.55440061077000   0.00000000000000   0.00000000000000
   1.04090099910000   0.00000000000000   0.00000000000000
   0.67825341194000   0.00000000000000   0.00000000000000
   0.00000000000000   0.75248191146000   0.00000000000000
   0.00000000000000   1.37085850310000   0.00000000000000
   0.00000000000000   0.66047633079000   0.00000000000000
   0.00000000000000   0.00000000000000   1.00000000000000

/Ca.def-SVP.Schafer.14s9p4d.5s3p2d.
A. Schafer, H. Horn, R. Ahlrichs. J. Chem. Phys. 97 (1992) 2571-2577. doi:10.1063/1.463096
CALCIUM (14s,9p,4d) -> [5s,3p,2d]
    20.0   2
* s-type functions
   14    5
    35138.7139290000
     5276.4111348000
     1200.4692589000
      338.7181054200
      109.8538592200
       37.6088802990
       73.1079775550
        8.2407705688
        3.2959812993
        5.2341800914
     8418.7220515e-4
     3651.0294029e-4
     5122.2402884e-5
     1982.5111408e-5
   0.00394825207400   0.00000000000000   0.00000000000000   0.00000000000000   0.00000000000000
   0.03023424355200   0.00000000000000   0.00000000000000   0.00000000000000   0.00000000000000
   0.14952019681000   0.00000000000000   0.00000000000000   0.00000000000000   0.00000000000000
   0.51597345713000   0.00000000000000   0.00000000000000   0.00000000000000   0.00000000000000
   1.03395102960000   0.00000000000000   0.00000000000000   0.00000000000000   0.00000000000000
   0.76937933526000   0.00000000000000   0.00000000000000   0.00000000000000   0.00000000000000
   0.00000000000000  -0.28268525011000   0.00000000000000   0.00000000000000   0.00000000000000
   0.00000000000000   1.67960921420000   0.00000000000000   0.00000000000000   0.00000000000000
   0.00000000000000   1.28037660160000   0.00000000000000   0.00000000000000   0.00000000000000
   0.00000000000000   0.00000000000000  -0.00768686045610   0.00000000000000   0.00000000000000
   0.00000000000000   0.00000000000000   0.02538237597800   0.00000000000000   0.00000000000000
   0.00000000000000   0.00000000000000   0.01651217151100   0.00000000000000   0.00000000000000
   0.00000000000000   0.00000000000000   0.00000000000000   1.00000000000000   0.00000000000000
   0.00000000000000   0.00000000000000   0.00000000000000   0.00000000000000   1.00000000000000
* p-type functions
    9    3
      413.1131389300
       96.9357862240
       30.3721546590
       10.6847768300
        3.8821258350
        1.7993016295
        0.6918905653
     2636.4024096e-4
        0.0749790000
   0.02032713535400   0.00000000000000   0.00000000000000
   0.14730276362000   0.00000000000000   0.00000000000000
   0.54887167322000   0.00000000000000   0.00000000000000
   1.04406598180000   0.00000000000000   0.00000000000000
   0.68653490684000   0.00000000000000   0.00000000000000
   0.00000000000000   0.75410246871000   0.00000000000000
   0.00000000000000   1.34092965990000   0.00000000000000
   0.00000000000000   0.56391989435000   0.00000000000000
   0.00000000000000   0.00000000000000   1.00000000000000
* d-type functions
    4    2
        5.4979093879
        1.3177128032
     3218.8682649e-4
     7052.8614919e-5
   0.07377001143300   0.00000000000000
   0.26052853169000   0.00000000000000
   0.45233836380000   0.00000000000000
   0.00000000000000   1.00000000000000

/Sc.def-SVP.Schafer.14s9p5d.5s3p2d.
A. Schafer, H. Horn, R. Ahlrichs. J. Chem. Phys. 97 (1992) 2571-2577. doi:10.1063/1.463096
SCANDIUM (14s,9p,5d) -> [5s,3p,2d]
    21.0   2
* s-type functions
   14    5
    38956.0818040000
     5849.5733637000
     1330.8813154000
      375.5553416500
      121.8726137000
       41.7602437290
       81.0606339530
        9.2059823972
        3.7063215732
        5.9888909988
     9736.3432378e-4
     4204.1019223e-4
     5944.0551913e-5
     2289.7806303e-5
   0.00392932058580   0.00000000000000   0.00000000000000   0.00000000000000   0.00000000000000
   0.03009322122900   0.00000000000000   0.00000000000000   0.00000000000000   0.00000000000000
   0.14890370950000   0.00000000000000   0.00000000000000   0.00000000000000   0.00000000000000
   0.51464282906000   0.00000000000000   0.00000000000000   0.00000000000000   0.00000000000000
   1.03377080700000   0.00000000000000   0.00000000000000   0.00000000000000   0.00000000000000
   0.77436851627000   0.00000000000000   0.00000000000000   0.00000000000000   0.00000000000000
   0.00000000000000  -0.28318552316000   0.00000000000000   0.00000000000000   0.00000000000000
   0.00000000000000   1.67708069840000   0.00000000000000   0.00000000000000   0.00000000000000
   0.00000000000000   1.25947336780000   0.00000000000000   0.00000000000000   0.00000000000000
   0.00000000000000   0.00000000000000  -0.00778213674930   0.00000000000000   0.00000000000000
   0.00000000000000   0.00000000000000   0.02549969274500   0.00000000000000   0.00000000000000
   0.00000000000000   0.00000000000000   0.01619156082000   0.00000000000000   0.00000000000000
   0.00000000000000   0.00000000000000   0.00000000000000   1.00000000000000   0.00000000000000
   0.00000000000000   0.00000000000000   0.00000000000000   0.00000000000000   1.00000000000000
* p-type functions
    9    3
      466.3148126200
      109.5121709700
       34.3759218270
       12.1420969550
        4.4336767669
        2.0971291866
     8097.7606956e-4
     3083.4046588e-4
        0.0897480000
   0.01998430038500   0.00000000000000   0.00000000000000
   0.14561043072000   0.00000000000000   0.00000000000000
   0.54687466223000   0.00000000000000   0.00000000000000
   1.04790060120000   0.00000000000000   0.00000000000000
   0.68894890327000   0.00000000000000   0.00000000000000
   0.00000000000000   0.75619214724000   0.00000000000000
   0.00000000000000   1.31782122350000   0.00000000000000
   0.00000000000000   0.54312268173000   0.00000000000000
   0.00000000000000   0.00000000000000   1.00000000000000
* d-type functions
    5    2
       19.2403349280
        5.1178995899
        1.6554278827
        0.5401635561
     1621.1214518e-4
   0.02703908214400   0.00000000000000
   0.13803684743000   0.00000000000000
   0.34869086403000   0.00000000000000
   0.48594185717000   0.00000000000000
   0.00000000000000   0.34374449689000

/Ti.def-SVP.Schafer.14s9p5d.5s3p2d.
A. Schafer, H. Horn, R. Ahlrichs. J. Chem. Phys. 97 (1992) 2571-2577. doi:10.1063/1.463096
TITANIUM (14s,9p,5d) -> [5s,3p,2d]
    22.0   2
* s-type functions
   14    5
    42961.5121850000
     6450.9759169000
     1467.7210915000
      414.2099735500
      134.4871584000
       46.1222097960
       89.4477625430
       10.2233460600
        4.1353774271
        6.7896181452
        1.1106730691
     4756.5975578e-4
     6598.6956934e-5
      252.1034225e-4
   0.00391276353550   0.00000000000000   0.00000000000000   0.00000000000000   0.00000000000000
   0.02996982048900   0.00000000000000   0.00000000000000   0.00000000000000   0.00000000000000
   0.14836352707000   0.00000000000000   0.00000000000000   0.00000000000000   0.00000000000000
   0.51347285324000   0.00000000000000   0.00000000000000   0.00000000000000   0.00000000000000
   1.03353654830000   0.00000000000000   0.00000000000000   0.00000000000000   0.00000000000000
   0.77854233930000   0.00000000000000   0.00000000000000   0.00000000000000   0.00000000000000
   0.00000000000000  -0.28385401259000   0.00000000000000   0.00000000000000   0.00000000000000
   0.00000000000000   1.67727853330000   0.00000000000000   0.00000000000000   0.00000000000000
   0.00000000000000   1.24119284560000   0.00000000000000   0.00000000000000   0.00000000000000
   0.00000000000000   0.00000000000000  -0.00783999945180   0.00000000000000   0.00000000000000
   0.00000000000000   0.00000000000000   0.02549549301900   0.00000000000000   0.00000000000000
   0.00000000000000   0.00000000000000   0.01606117289200   0.00000000000000   0.00000000000000
   0.00000000000000   0.00000000000000   0.00000000000000   1.00000000000000   0.00000000000000
   0.00000000000000   0.00000000000000   0.00000000000000   0.00000000000000   1.00000000000000
* p-type functions
    9    3
      522.0368478200
      122.6864948900
       38.5729036110
       13.6721693190
        5.0118529359
        2.4131928282
        0.9325227005
        0.3542905839
        0.1015610000
   0.01975417964200   0.00000000000000   0.00000000000000
   0.14460677619000   0.00000000000000   0.00000000000000
   0.54669004165000   0.00000000000000   0.00000000000000
   1.05316475400000   0.00000000000000   0.00000000000000
   0.69111213363000   0.00000000000000   0.00000000000000
   0.00000000000000   0.75803437136000   0.00000000000000
   0.00000000000000   1.30362413990000   0.00000000000000
   0.00000000000000   0.53638653300000   0.00000000000000
   0.00000000000000   0.00000000000000   1.00000000000000
* d-type functions
    5    2
       23.4651259570
        6.3332593832
        2.0766489946
     6902.7361954e-4
     2108.8738554e-4
   0.02653638011500   0.00000000000000
   0.13796453963000   0.00000000000000
   0.35312644228000   0.00000000000000
   0.48647124166000   0.00000000000000
   0.00000000000000   0.33026314258000

/V.def-SVP.Schafer.14s9p5d.5s3p2d.
A. Schafer, H. Horn, R. Ahlrichs. J. Chem. Phys. 97 (1992) 2571-2577. doi:10.1063/1.463096
VANADIUM (14s,9p,5d) -> [5s,3p,2d]
    23.0   2
* s-type functions
   14    5
    47160.3760600000
     7081.4110871000
     1611.1621223000
      454.7294055100
      147.7132120800
       50.6995389500
       98.2624926690
       11.2942930990
        4.5853360105
        7.6359689588
        1.2539836689
     5327.1935387e-4
     7224.6239566e-5
     2735.8087448e-5
   0.00144986889080   0.00000000000000   0.00000000000000   0.00000000000000   0.00000000000000
   0.01110643525100   0.00000000000000   0.00000000000000   0.00000000000000   0.00000000000000
   0.05500542358500   0.00000000000000   0.00000000000000   0.00000000000000   0.00000000000000
   0.19060252591000   0.00000000000000   0.00000000000000   0.00000000000000   0.00000000000000
   0.38435022957000   0.00000000000000   0.00000000000000   0.00000000000000   0.00000000000000
   0.29095546792000   0.00000000000000   0.00000000000000   0.00000000000000   0.00000000000000
   0.00000000000000  -0.10942337856000   0.00000000000000   0.00000000000000   0.00000000000000
   0.00000000000000   0.64539490399000   0.00000000000000   0.00000000000000   0.00000000000000
   0.00000000000000   0.47117880777000   0.00000000000000   0.00000000000000   0.00000000000000
   0.00000000000000   0.00000000000000  -0.22454949054000   0.00000000000000   0.00000000000000
   0.00000000000000   0.00000000000000   0.72594852764000   0.00000000000000   0.00000000000000
   0.00000000000000   0.00000000000000   0.45560582748000   0.00000000000000   0.00000000000000
   0.00000000000000   0.00000000000000   0.00000000000000   1.00000000000000   0.00000000000000
   0.00000000000000   0.00000000000000   0.00000000000000   0.00000000000000   1.00000000000000
* p-type functions
    9    3
      580.5504498800
      136.5234112700
       42.9839588200
       15.2827987630
        5.6202495154
        2.7485386415
        1.0618550073
     4023.5518645e-4
        0.1112480000
   0.00973151109170   0.00000000000000   0.00000000000000
   0.07153124113700   0.00000000000000   0.00000000000000
   0.27197688414000   0.00000000000000   0.00000000000000
   0.52618988893000   0.00000000000000   0.00000000000000
   0.34452533498000   0.00000000000000   0.00000000000000
   0.00000000000000   0.34040396496000   0.00000000000000
   0.00000000000000   0.57983996120000   0.00000000000000
   0.00000000000000   0.23911643083000   0.00000000000000
   0.00000000000000   0.00000000000000   1.00000000000000
* d-type functions
    5    2
       27.3584340170
        7.4540604253
        2.4633917847
     8248.0925277e-4
     2525.7904742e-4
   0.02664192705000   0.00000000000000
   0.13995311726000   0.00000000000000
   0.35751066639000   0.00000000000000
   0.48488354148000   0.00000000000000
   0.00000000000000   0.32332844995000

/Cr.def-SVP.Schafer.14s9p5d.5s3p2d.
A. Schafer, H. Horn, R. Ahlrichs. J. Chem. Phys. 97 (1992) 2571-2577. doi:10.1063/1.463096
CHROMIUM (14s,9p,5d) -> [5s,3p,2d]
    24.0   2
* s-type functions
   14    5
    51528.0863490000
     7737.2103487000
     1760.3748470000
      496.8770654400
      161.4652059800
       55.4663522680
      107.5473299900
       12.4086718970
        5.0423628826
        8.5461640165
        1.3900441221
     5606.6602876e-4
     7148.3705972e-5
     2825.0687604e-5
   0.00144058231060   0.00000000000000   0.00000000000000   0.00000000000000   0.00000000000000
   0.01103620228700   0.00000000000000   0.00000000000000   0.00000000000000   0.00000000000000
   0.05467665180600   0.00000000000000   0.00000000000000   0.00000000000000   0.00000000000000
   0.18965038103000   0.00000000000000   0.00000000000000   0.00000000000000   0.00000000000000
   0.38295412850000   0.00000000000000   0.00000000000000   0.00000000000000   0.00000000000000
   0.29090050668000   0.00000000000000   0.00000000000000   0.00000000000000   0.00000000000000
   0.00000000000000  -0.10932281100000   0.00000000000000   0.00000000000000   0.00000000000000
   0.00000000000000   0.64472599471000   0.00000000000000   0.00000000000000   0.00000000000000
   0.00000000000000   0.46262712560000   0.00000000000000   0.00000000000000   0.00000000000000
   0.00000000000000   0.00000000000000  -0.22711013286000   0.00000000000000   0.00000000000000
   0.00000000000000   0.00000000000000   0.73301527591000   0.00000000000000   0.00000000000000
   0.00000000000000   0.00000000000000   0.44225565433000   0.00000000000000   0.00000000000000
   0.00000000000000   0.00000000000000   0.00000000000000   1.00000000000000   0.00000000000000
   0.00000000000000   0.00000000000000   0.00000000000000   0.00000000000000   1.00000000000000
* p-type functions
    9    3
      640.4853609600
      150.6971119400
       47.5037552960
       16.9341201650
        6.2409680590
        3.0885463206
        1.1791047769
     4336.9774432e-4
        0.1206750000
   0.00961267152030   0.00000000000000   0.00000000000000
   0.07088983465500   0.00000000000000   0.00000000000000
   0.27065258990000   0.00000000000000   0.00000000000000
   0.52437343414000   0.00000000000000   0.00000000000000
   0.34107994714000   0.00000000000000   0.00000000000000
   0.00000000000000   0.33973986903000   0.00000000000000
   0.00000000000000   0.57272062927000   0.00000000000000
   0.00000000000000   0.24582728206000   0.00000000000000
   0.00000000000000   0.00000000000000   1.00000000000000
* d-type functions
    5    2
       27.5594794260
        7.4687020327
        2.4345903574
     7824.4754808e-4
     2199.5774311e-4
   0.03061248804400   0.00000000000000
   0.15593270944000   0.00000000000000
   0.36984421276000   0.00000000000000
   0.47071118077000   0.00000000000000
   0.00000000000000   0.33941649889000

/Mn.def-SVP.Schafer.14s9p5d.5s3p2d.
A. Schafer, H. Horn, R. Ahlrichs. J. Chem. Phys. 97 (1992) 2571-2577. doi:10.1063/1.463096
MANGANESE (14s,9p,5d) -> [5s,3p,2d]
    25.0   2
* s-type functions
   14    5
    56137.0090370000
     8429.2063943000
     1917.8277233000
      541.3623019800
      176.0006914200
       60.5004770100
      117.1728288200
       13.5969733680
        5.5483996341
        9.4662853530
        1.5595006070
     6523.0205868e-4
     8400.3734475e-5
     3125.6098581e-5
   0.00143213047020   0.00000000000000   0.00000000000000   0.00000000000000   0.00000000000000
   0.01097250916200   0.00000000000000   0.00000000000000   0.00000000000000   0.00000000000000
   0.05438246871200   0.00000000000000   0.00000000000000   0.00000000000000   0.00000000000000
   0.18884335129000   0.00000000000000   0.00000000000000   0.00000000000000   0.00000000000000
   0.38198025054000   0.00000000000000   0.00000000000000   0.00000000000000   0.00000000000000
   0.29156772596000   0.00000000000000   0.00000000000000   0.00000000000000   0.00000000000000
   0.00000000000000  -0.10933661328000   0.00000000000000   0.00000000000000   0.00000000000000
   0.00000000000000   0.64305039431000   0.00000000000000   0.00000000000000   0.00000000000000
   0.00000000000000   0.45848970584000   0.00000000000000   0.00000000000000   0.00000000000000
   0.00000000000000   0.00000000000000  -0.22538977259000   0.00000000000000   0.00000000000000
   0.00000000000000   0.00000000000000   0.72307758657000   0.00000000000000   0.00000000000000
   0.00000000000000   0.00000000000000   0.45300721536000   0.00000000000000   0.00000000000000
   0.00000000000000   0.00000000000000   0.00000000000000   1.00000000000000   0.00000000000000
   0.00000000000000   0.00000000000000   0.00000000000000   0.00000000000000   1.00000000000000
* p-type functions
    9    3
      706.0049753500
      166.1972882000
       52.4520619060
       18.7469328620
        6.9282991622
        3.4772204938
        1.3406906449
     5049.8803038e-4
        0.1276500000
   0.00950555181670   0.00000000000000   0.00000000000000
   0.07035627114200   0.00000000000000   0.00000000000000
   0.27005556982000   0.00000000000000   0.00000000000000
   0.52574344602000   0.00000000000000   0.00000000000000
   0.34254033223000   0.00000000000000   0.00000000000000
   0.00000000000000   0.33994073736000   0.00000000000000
   0.00000000000000   0.57203836254000   0.00000000000000
   0.00000000000000   0.23847605831000   0.00000000000000
   0.00000000000000   0.00000000000000   1.00000000000000
* d-type functions
    5    2
       35.4232649350
        9.7814221451
        3.2673488767
        1.1026472189
     3374.3205934e-4
   0.02698530411100   0.00000000000000
   0.14383458648000   0.00000000000000
   0.36418958377000   0.00000000000000
   0.48152670661000   0.00000000000000
   0.00000000000000   0.31458754360000

/Fe.def-SVP.Schafer.14s9p5d.5s3p2d.
A. Schafer, H. Horn, R. Ahlrichs. J. Chem. Phys. 97 (1992) 2571-2577. doi:10.1063/1.463096
IRON (14s,9p,5d) -> [5s,3p,2d]
    26.0   2
* s-type functions
   14    5
    60923.6406430000
     9147.8893982000
     2081.3505927000
      587.5597706700
      191.0904399000
       65.7327301120
      127.2589192800
       14.8309130100
        6.0653307408
       10.4499437100
        1.7245228003
     7177.2177325e-4
     9144.9828308e-5
     3370.6691021e-5
   0.00143022544660   0.00000000000000   0.00000000000000   0.00000000000000   0.00000000000000
   0.01095879003800   0.00000000000000   0.00000000000000   0.00000000000000   0.00000000000000
   0.05433255424800   0.00000000000000   0.00000000000000   0.00000000000000   0.00000000000000
   0.18884995009000   0.00000000000000   0.00000000000000   0.00000000000000   0.00000000000000
   0.38253069946000   0.00000000000000   0.00000000000000   0.00000000000000   0.00000000000000
   0.29308335984000   0.00000000000000   0.00000000000000   0.00000000000000   0.00000000000000
   0.00000000000000  -0.10964564925000   0.00000000000000   0.00000000000000   0.00000000000000
   0.00000000000000   0.64387631332000   0.00000000000000   0.00000000000000   0.00000000000000
   0.00000000000000   0.45472347323000   0.00000000000000   0.00000000000000   0.00000000000000
   0.00000000000000   0.00000000000000  -0.22539639952000   0.00000000000000   0.00000000000000
   0.00000000000000   0.00000000000000   0.72164398156000   0.00000000000000   0.00000000000000
   0.00000000000000   0.00000000000000   0.44985492922000   0.00000000000000   0.00000000000000
   0.00000000000000   0.00000000000000   0.00000000000000   1.00000000000000   0.00000000000000
   0.00000000000000   0.00000000000000   0.00000000000000   0.00000000000000   1.00000000000000
* p-type functions
    9    3
      773.4375099500
      182.1514971400
       57.5472727580
       20.6149889350
        7.6348557890
        3.8719327990
        1.4924724132
     5606.1284958e-4
        0.1349150000
   0.00943257351440   0.00000000000000   0.00000000000000
   0.07002962057500   0.00000000000000   0.00000000000000
   0.26993651996000   0.00000000000000   0.00000000000000
   0.52700011047000   0.00000000000000   0.00000000000000
   0.34284148028000   0.00000000000000   0.00000000000000
   0.00000000000000   0.33974402988000   0.00000000000000
   0.00000000000000   0.56842594005000   0.00000000000000
   0.00000000000000   0.23649365839000   0.00000000000000
   0.00000000000000   0.00000000000000   1.00000000000000
* d-type functions
    5    2
       38.9681334190
       10.8000670780
        3.6136457999
        1.2129967888
        0.3652439317
   0.02787966438200   0.00000000000000
   0.14858319982000   0.00000000000000
   0.36905479496000   0.00000000000000
   0.47745100883000   0.00000000000000
   0.00000000000000   0.31418142304000

/Co.def-SVP.Schafer.14s9p5d.5s3p2d.
A. Schafer, H. Horn, R. Ahlrichs. J. Chem. Phys. 97 (1992) 2571-2577. doi:10.1063/1.463096
COBALT (14s,9p,5d) -> [5s,3p,2d]
    27.0   2
* s-type functions
   14    5
    65902.2082570000
     9895.3896027000
     2251.4305789000
      635.6109708400
      206.7882068100
       71.1792429710
      137.7726804000
       16.1180792430
        6.6030327710
       11.4799157880
        1.8956426324
     7846.6232067e-4
     9842.5774432e-5
     3594.5741932e-5
   0.00142846149360   0.00000000000000   0.00000000000000   0.00000000000000   0.00000000000000
   0.01094607278300   0.00000000000000   0.00000000000000   0.00000000000000   0.00000000000000
   0.05428595389000   0.00000000000000   0.00000000000000   0.00000000000000   0.00000000000000
   0.18885179079000   0.00000000000000   0.00000000000000   0.00000000000000   0.00000000000000
   0.38301634994000   0.00000000000000   0.00000000000000   0.00000000000000   0.00000000000000
   0.29443551266000   0.00000000000000   0.00000000000000   0.00000000000000   0.00000000000000
   0.00000000000000  -0.10990221736000   0.00000000000000   0.00000000000000   0.00000000000000
   0.00000000000000   0.64455537395000   0.00000000000000   0.00000000000000   0.00000000000000
   0.00000000000000   0.45116787924000   0.00000000000000   0.00000000000000   0.00000000000000
   0.00000000000000   0.00000000000000  -0.22593846910000   0.00000000000000   0.00000000000000
   0.00000000000000   0.00000000000000   0.72231409008000   0.00000000000000   0.00000000000000
   0.00000000000000   0.00000000000000   0.44903812296000   0.00000000000000   0.00000000000000
   0.00000000000000   0.00000000000000   0.00000000000000   1.00000000000000   0.00000000000000
   0.00000000000000   0.00000000000000   0.00000000000000   0.00000000000000   1.00000000000000
* p-type functions
    9    3
      843.6435857500
      198.7638699400
       62.8549630980
       22.5628422800
        8.3713209127
        4.2858719800
        1.6508041817
     6183.4231096e-4
        0.1413080000
   0.00938660972540   0.00000000000000   0.00000000000000
   0.06988020871600   0.00000000000000   0.00000000000000
   0.27037070345000   0.00000000000000   0.00000000000000
   0.52904786880000   0.00000000000000   0.00000000000000
   0.34357029579000   0.00000000000000   0.00000000000000
   0.00000000000000   0.34027999036000   0.00000000000000
   0.00000000000000   0.56693392384000   0.00000000000000
   0.00000000000000   0.23617979783000   0.00000000000000
   0.00000000000000   0.00000000000000   1.00000000000000
* d-type functions
    5    2
       42.9278676120
       11.9425330530
        4.0046495664
        1.3413193804
     4001.5009743e-4
   0.02848778836500   0.00000000000000
   0.15206951283000   0.00000000000000
   0.37310913999000   0.00000000000000
   0.47549837676000   0.00000000000000
   0.00000000000000   0.31346831424000

/Ni.def-SVP.Schafer.14s9p5d.5s3p2d.
A. Schafer, H. Horn, R. Ahlrichs. J. Chem. Phys. 97 (1992) 2571-2577. doi:10.1063/1.463096
NICKEL (14s,9p,5d) -> [5s,3p,2d]
    28.0   2
* s-type functions
   14    5
    71074.8032110000
    10672.0209410000
     2428.1389007000
      685.5359514800
      223.1007286300
       76.8420140420
      148.7112201600
       17.4591549870
        7.1625280665
       12.5561371250
        2.0735740488
     8538.2640602e-4
     1053.6766271e-4
     3813.4087688e-5
   0.00142603867290   0.00000000000000   0.00000000000000   0.00000000000000   0.00000000000000
   0.01092823699400   0.00000000000000   0.00000000000000   0.00000000000000   0.00000000000000
   0.05421262693800   0.00000000000000   0.00000000000000   0.00000000000000   0.00000000000000
   0.18874768902000   0.00000000000000   0.00000000000000   0.00000000000000   0.00000000000000
   0.38324616985000   0.00000000000000   0.00000000000000   0.00000000000000   0.00000000000000
   0.29550637144000   0.00000000000000   0.00000000000000   0.00000000000000   0.00000000000000
   0.00000000000000  -0.11014443059000   0.00000000000000   0.00000000000000   0.00000000000000
   0.00000000000000   0.64521426988000   0.00000000000000   0.00000000000000   0.00000000000000
   0.00000000000000   0.44797838103000   0.00000000000000   0.00000000000000   0.00000000000000
   0.00000000000000   0.00000000000000  -0.22645403224000   0.00000000000000   0.00000000000000
   0.00000000000000   0.00000000000000   0.72320959286000   0.00000000000000   0.00000000000000
   0.00000000000000   0.00000000000000   0.44868026476000   0.00000000000000   0.00000000000000
   0.00000000000000   0.00000000000000   0.00000000000000   1.00000000000000   0.00000000000000
   0.00000000000000   0.00000000000000   0.00000000000000   0.00000000000000   1.00000000000000
* p-type functions
    9    3
      916.7360866200
      216.0613991300
       68.3839148170
       24.5938439520
        9.1392960204
        4.7193371746
        1.8161849234
        0.6784075072
        0.1465880000
   0.00934396356100   0.00000000000000   0.00000000000000
   0.06973737490200   0.00000000000000   0.00000000000000
   0.27073495012000   0.00000000000000   0.00000000000000
   0.53078301549000   0.00000000000000   0.00000000000000
   0.34410229438000   0.00000000000000   0.00000000000000
   0.00000000000000   0.34076082016000   0.00000000000000
   0.00000000000000   0.56580169611000   0.00000000000000
   0.00000000000000   0.23616717361000   0.00000000000000
   0.00000000000000   0.00000000000000   1.00000000000000
* d-type functions
    5    2
       47.0938321080
       13.1464639750
        4.4170548925
        1.4771565078
     4373.5921792e-4
   0.02898231694800   0.00000000000000
   0.15494995950000   0.00000000000000
   0.37633115111000   0.00000000000000
   0.47365096014000   0.00000000000000
   0.00000000000000   0.31247837833000

/Cu.def-SVP.Schafer.14s9p5d.5s3p2d.
A. Schafer, H. Horn, R. Ahlrichs. J. Chem. Phys. 97 (1992) 2571-2577. doi:10.1063/1.463096
COPPER (14s,9p,5d) -> [5s,3p,2d]
    29.0   2
* s-type functions
   14    5
    76381.3480560000
    11468.7774990000
     2609.4246495000
      736.7503309800
      239.8241995800
       82.6568292520
      160.1354419600
       18.8341776950
        7.7176595741
       13.7108467170
        2.2349895670
     8781.8360069e-4
     8718.7458064e-5
     3296.9114665e-5
   0.00143360798960   0.00000000000000   0.00000000000000   0.00000000000000   0.00000000000000
   0.01098674986500   0.00000000000000   0.00000000000000   0.00000000000000   0.00000000000000
   0.05451365246500   0.00000000000000   0.00000000000000   0.00000000000000   0.00000000000000
   0.18990128258000   0.00000000000000   0.00000000000000   0.00000000000000   0.00000000000000
   0.38581959211000   0.00000000000000   0.00000000000000   0.00000000000000   0.00000000000000
   0.29790607498000   0.00000000000000   0.00000000000000   0.00000000000000   0.00000000000000
   0.00000000000000  -0.11146778567000   0.00000000000000   0.00000000000000   0.00000000000000
   0.00000000000000   0.65349301031000   0.00000000000000   0.00000000000000   0.00000000000000
   0.00000000000000   0.44770534421000   0.00000000000000   0.00000000000000   0.00000000000000
   0.00000000000000   0.00000000000000  -0.22870911122000   0.00000000000000   0.00000000000000
   0.00000000000000   0.00000000000000   0.73464423031000   0.00000000000000   0.00000000000000
   0.00000000000000   0.00000000000000   0.43273070874000   0.00000000000000   0.00000000000000
   0.00000000000000   0.00000000000000   0.00000000000000   1.00000000000000   0.00000000000000
   0.00000000000000   0.00000000000000   0.00000000000000   0.00000000000000   1.00000000000000
* p-type functions
    9    3
      991.2407578200
      233.6937611600
       74.0209309270
       26.6649674470
        9.9192087478
        5.1519553926
        1.9638205828
     7156.0097037e-4
        0.1550650000
   0.00938784987980   0.00000000000000   0.00000000000000
   0.07020828245800   0.00000000000000   0.00000000000000
   0.27323522220000   0.00000000000000   0.00000000000000
   0.53580792728000   0.00000000000000   0.00000000000000
   0.34575794906000   0.00000000000000   0.00000000000000
   0.00000000000000   0.34229108083000   0.00000000000000
   0.00000000000000   0.56456592484000   0.00000000000000
   0.00000000000000   0.24078584318000   0.00000000000000
   0.00000000000000   0.00000000000000   1.00000000000000
* d-type functions
    5    2
       47.3350495900
       13.1616660770
        4.3693777244
        1.4132925109
     3887.8001452e-4
   0.03237554775800   0.00000000000000
   0.16810218684000   0.00000000000000
   0.38477707982000   0.00000000000000
   0.46147880178000   0.00000000000000
   0.00000000000000   0.32388873258000

/Zn.def-SVP.Schafer.14s9p5d.5s3p2d.
A. Schafer, H. Horn, R. Ahlrichs. J. Chem. Phys. 97 (1992) 2571-2577. doi:10.1063/1.463096
ZINC (14s,9p,5d) -> [5s,3p,2d]
    30.0   2
* s-type functions
   14    5
    82000.7116290000
    12312.4717770000
     2801.3944193000
      790.9942430200
      257.5655107900
       88.8149334000
      171.8635371600
       20.3025347850
        8.3464123068
       14.8475369400
        2.4495029507
     9984.5821824e-4
     1189.1307937e-4
      422.9742876e-4
   0.00142107640000   0.00000000000000   0.00000000000000   0.00000000000000   0.00000000000000
   0.01089149948700   0.00000000000000   0.00000000000000   0.00000000000000   0.00000000000000
   0.05405718805900   0.00000000000000   0.00000000000000   0.00000000000000   0.00000000000000
   0.18847463904000   0.00000000000000   0.00000000000000   0.00000000000000   0.00000000000000
   0.38346549346000   0.00000000000000   0.00000000000000   0.00000000000000   0.00000000000000
   0.29723794197000   0.00000000000000   0.00000000000000   0.00000000000000   0.00000000000000
   0.00000000000000  -0.11051849523000   0.00000000000000   0.00000000000000   0.00000000000000
   0.00000000000000   0.64607716984000   0.00000000000000   0.00000000000000   0.00000000000000
   0.00000000000000   0.44220117322000   0.00000000000000   0.00000000000000   0.00000000000000
   0.00000000000000   0.00000000000000  -0.22705309278000   0.00000000000000   0.00000000000000
   0.00000000000000   0.00000000000000   0.72433217935000   0.00000000000000   0.00000000000000
   0.00000000000000   0.00000000000000   0.44836495592000   0.00000000000000   0.00000000000000
   0.00000000000000   0.00000000000000   0.00000000000000   1.00000000000000   0.00000000000000
   0.00000000000000   0.00000000000000   0.00000000000000   0.00000000000000   1.00000000000000
* p-type functions
    9    3
     1071.5185372000
      252.6971215200
       80.1008291260
       28.9033931720
       10.7688998790
        5.6446212530
        2.1678291347
     8054.0898341e-4
        0.1624550000
   0.00927677972350   0.00000000000000   0.00000000000000
   0.06954114943400   0.00000000000000   0.00000000000000
   0.27156772564000   0.00000000000000   0.00000000000000
   0.53401355573000   0.00000000000000   0.00000000000000
   0.34501323446000   0.00000000000000   0.00000000000000
   0.00000000000000   0.34129600164000   0.00000000000000
   0.00000000000000   0.56390521973000   0.00000000000000
   0.00000000000000   0.23676109735000   0.00000000000000
   0.00000000000000   0.00000000000000   1.00000000000000
* d-type functions
    5    2
       56.0889391910
       15.7519089170
        5.3115812367
        1.7737904917
     5197.5583665e-4
   0.02958886914000   0.00000000000000
   0.15872571404500   0.00000000000000
   0.37976229159100   0.00000000000000
   0.46898959171900   0.00000000000000
   0.00000000000000   0.30907149077600

/Ga.def-SVP.Schafer.14s10p6d.5s4p3d.
A. Schafer, H. Horn, R. Ahlrichs. J. Chem. Phys. 97 (1992) 2571-2577. doi:10.1063/1.463096
GALLIUM (14s,10p,6d) -> [5s,4p,3d]
    31.0   2
* s-type functions
   14    5
    87842.1262960000
    13189.4964020000
     3000.9482141000
      847.3842596600
      276.0098064200
       95.2166720710
      184.0070396800
       21.8270514330
        9.0026963761
       16.0331769380
        2.6707724878
        1.1252834170
     1596.7608829e-4
     5764.3044753e-5
   0.00142715887980   0.00000000000000   0.00000000000000   0.00000000000000   0.00000000000000
   0.01093889409700   0.00000000000000   0.00000000000000   0.00000000000000   0.00000000000000
   0.05430820012700   0.00000000000000   0.00000000000000   0.00000000000000   0.00000000000000
   0.18951055983000   0.00000000000000   0.00000000000000   0.00000000000000   0.00000000000000
   0.38615185918000   0.00000000000000   0.00000000000000   0.00000000000000   0.00000000000000
   0.30051082719000   0.00000000000000   0.00000000000000   0.00000000000000   0.00000000000000
   0.00000000000000  -0.11124461963000   0.00000000000000   0.00000000000000   0.00000000000000
   0.00000000000000   0.64831322918000   0.00000000000000   0.00000000000000   0.00000000000000
   0.00000000000000   0.44358383594000   0.00000000000000   0.00000000000000   0.00000000000000
   0.00000000000000   0.00000000000000  -0.23014299555000   0.00000000000000   0.00000000000000
   0.00000000000000   0.00000000000000   0.72946861516000   0.00000000000000   0.00000000000000
   0.00000000000000   0.00000000000000   0.46214976951000   0.00000000000000   0.00000000000000
   0.00000000000000   0.00000000000000   0.00000000000000   1.00000000000000   0.00000000000000
   0.00000000000000   0.00000000000000   0.00000000000000   0.00000000000000   1.00000000000000
* p-type functions
   10    4
     1167.2665844000
      275.3806278900
       87.3750730700
       31.5972546700
       11.8241227980
        6.2881845133
        2.5199853240
        1.0169726306
     2474.8373604e-4
     6668.5294163e-5
   0.00909740213070   0.00000000000000   0.00000000000000   0.00000000000000
   0.06845627334300   0.00000000000000   0.00000000000000   0.00000000000000
   0.26922293888000   0.00000000000000   0.00000000000000   0.00000000000000
   0.53507897882000   0.00000000000000   0.00000000000000   0.00000000000000
   0.35279062760000   0.00000000000000   0.00000000000000   0.00000000000000
   0.00000000000000   0.33938244530000   0.00000000000000   0.00000000000000
   0.00000000000000   0.56871947608000   0.00000000000000   0.00000000000000
   0.00000000000000   0.27717694939000   0.00000000000000   0.00000000000000
   0.00000000000000   0.00000000000000   1.00000000000000   0.00000000000000
   0.00000000000000   0.00000000000000   0.00000000000000   1.00000000000000
* d-type functions
    6    3
       65.3542376740
       18.5046567470
        6.3179620632
        2.1641389426
     6669.3092754e-4
        0.2070000000
   0.02737014638200   0.00000000000000   0.00000000000000
   0.15099463976000   0.00000000000000   0.00000000000000
   0.37485328545000   0.00000000000000   0.00000000000000
   0.47510606851000   0.00000000000000   0.00000000000000
   0.00000000000000   0.29843287401000   0.00000000000000
   0.00000000000000   0.00000000000000   1.00000000000000

/Ge.def-SVP.Schafer.14s10p6d.5s4p3d.
A. Schafer, H. Horn, R. Ahlrichs. J. Chem. Phys. 97 (1992) 2571-2577. doi:10.1063/1.463096
GERMANIUM (14s,10p,6d) -> [5s,4p,3d]
    32.0   2
* s-type functions
   14    5
    93889.8366420000
    14097.4975280000
     3207.5477309000
      905.7672726900
      295.1101469300
      101.8471314100
      196.5671966200
       23.4052925220
        9.6839116702
       17.2697365440
        2.8964622160
        1.2553621412
     2021.3081492e-4
     7386.7910982e-5
   0.00142339760600   0.00000000000000   0.00000000000000   0.00000000000000   0.00000000000000
   0.01091079565400   0.00000000000000   0.00000000000000   0.00000000000000   0.00000000000000
   0.05418370594300   0.00000000000000   0.00000000000000   0.00000000000000   0.00000000000000
   0.18922820349000   0.00000000000000   0.00000000000000   0.00000000000000   0.00000000000000
   0.38612847001000   0.00000000000000   0.00000000000000   0.00000000000000   0.00000000000000
   0.30164050736000   0.00000000000000   0.00000000000000   0.00000000000000   0.00000000000000
   0.00000000000000  -0.11118770940000   0.00000000000000   0.00000000000000   0.00000000000000
   0.00000000000000   0.64616007369000   0.00000000000000   0.00000000000000   0.00000000000000
   0.00000000000000   0.44188904568000   0.00000000000000   0.00000000000000   0.00000000000000
   0.00000000000000   0.00000000000000  -0.23027421375000   0.00000000000000   0.00000000000000
   0.00000000000000   0.00000000000000   0.73017169398000   0.00000000000000   0.00000000000000
   0.00000000000000   0.00000000000000   0.46197222255000   0.00000000000000   0.00000000000000
   0.00000000000000   0.00000000000000   0.00000000000000   1.00000000000000   0.00000000000000
   0.00000000000000   0.00000000000000   0.00000000000000   0.00000000000000   1.00000000000000
* p-type functions
   10    4
     1259.2085995000
      297.1562638200
       94.3533875220
       34.1763296770
       12.8161396150
        6.8471029784
        2.7717363939
        1.1458418175
     3067.9631536e-4
     8928.3644115e-5
   0.00901154642520   0.00000000000000   0.00000000000000   0.00000000000000
   0.06798684168900   0.00000000000000   0.00000000000000   0.00000000000000
   0.26853856488000   0.00000000000000   0.00000000000000   0.00000000000000
   0.53659649219000   0.00000000000000   0.00000000000000   0.00000000000000
   0.35633514961000   0.00000000000000   0.00000000000000   0.00000000000000
   0.00000000000000   0.33900693119000   0.00000000000000   0.00000000000000
   0.00000000000000   0.56809365264000   0.00000000000000   0.00000000000000
   0.00000000000000   0.27246539884000   0.00000000000000   0.00000000000000
   0.00000000000000   0.00000000000000   1.00000000000000   0.00000000000000
   0.00000000000000   0.00000000000000   0.00000000000000   1.00000000000000
* d-type functions
    6    3
       74.7821681770
       21.3108497590
        7.3464792363
        2.5656271395
        0.8198177307
        0.2460000000
   0.02575586020500   0.00000000000000   0.00000000000000
   0.14536816132000   0.00000000000000   0.00000000000000
   0.37134209859000   0.00000000000000   0.00000000000000
   0.48002998436000   0.00000000000000   0.00000000000000
   0.00000000000000   0.28978790744000   0.00000000000000
   0.00000000000000   0.00000000000000   1.00000000000000

/As.def-SVP.Schafer.14s10p6d.5s4p3d.
A. Schafer, H. Horn, R. Ahlrichs. J. Chem. Phys. 97 (1992) 2571-2577. doi:10.1063/1.463096
ARSENIC (14s,10p,6d) -> [5s,4p,3d]
    33.0   2
* s-type functions
   14    5
   100146.5255400000
    15036.8617110000
     3421.2902833000
      966.1696571700
      314.8739402600
      108.7082379000
      209.5423895000
       25.0382211390
       10.3909643430
       18.5550900930
        3.1281217449
        1.3884885073
     2471.4362141e-4
      914.2942867e-4
   0.00142583496170   0.00000000000000   0.00000000000000   0.00000000000000   0.00000000000000
   0.01093017696300   0.00000000000000   0.00000000000000   0.00000000000000   0.00000000000000
   0.05429417461000   0.00000000000000   0.00000000000000   0.00000000000000   0.00000000000000
   0.18976078153000   0.00000000000000   0.00000000000000   0.00000000000000   0.00000000000000
   0.38775195453000   0.00000000000000   0.00000000000000   0.00000000000000   0.00000000000000
   0.30402812040000   0.00000000000000   0.00000000000000   0.00000000000000   0.00000000000000
   0.00000000000000  -0.11162094204000   0.00000000000000   0.00000000000000   0.00000000000000
   0.00000000000000   0.64697607762000   0.00000000000000   0.00000000000000   0.00000000000000
   0.00000000000000   0.44223608673000   0.00000000000000   0.00000000000000   0.00000000000000
   0.00000000000000   0.00000000000000  -0.22994190569000   0.00000000000000   0.00000000000000
   0.00000000000000   0.00000000000000   0.73319107613000   0.00000000000000   0.00000000000000
   0.00000000000000   0.00000000000000   0.45533653943000   0.00000000000000   0.00000000000000
   0.00000000000000   0.00000000000000   0.00000000000000   1.00000000000000   0.00000000000000
   0.00000000000000   0.00000000000000   0.00000000000000   0.00000000000000   1.00000000000000
* p-type functions
   10    4
     1355.6443507000
      319.9992927000
      101.6773409200
       36.8863238450
       13.8611159090
        7.4260666912
        3.0316247187
        1.2783078340
     3756.8503356e-4
     1139.4805454e-4
   0.00891825078980   0.00000000000000   0.00000000000000   0.00000000000000
   0.06745475071700   0.00000000000000   0.00000000000000   0.00000000000000
   0.26759772110000   0.00000000000000   0.00000000000000   0.00000000000000
   0.53776844520000   0.00000000000000   0.00000000000000   0.00000000000000
   0.35992570244000   0.00000000000000   0.00000000000000   0.00000000000000
   0.00000000000000   0.34036849637000   0.00000000000000   0.00000000000000
   0.00000000000000   0.57030149334000   0.00000000000000   0.00000000000000
   0.00000000000000   0.26606170238000   0.00000000000000   0.00000000000000
   0.00000000000000   0.00000000000000   1.00000000000000   0.00000000000000
   0.00000000000000   0.00000000000000   0.00000000000000   1.00000000000000
* d-type functions
    6    3
       84.4455145390
       24.1904161020
        8.4045015119
        2.9808970748
     9790.9243359e-4
        0.2930000000
   0.02451840272400   0.00000000000000   0.00000000000000
   0.14107454677000   0.00000000000000   0.00000000000000
   0.36875228915000   0.00000000000000   0.00000000000000
   0.48409561362000   0.00000000000000   0.00000000000000
   0.00000000000000   0.28250268781000   0.00000000000000
   0.00000000000000   0.00000000000000   1.00000000000000

/Se.def-SVP.Schafer.14s10p6d.5s4p3d.
A. Schafer, H. Horn, R. Ahlrichs. J. Chem. Phys. 97 (1992) 2571-2577. doi:10.1063/1.463096
SELENIUM (14s,10p,6d) -> [5s,4p,3d]
    34.0   2
* s-type functions
   14    5
   106612.2002700000
    16007.6047010000
     3642.1699707000
     1028.5912993000
      335.3029888800
      115.8012915400
      222.9332502000
       26.7262579340
       11.1245019230
       19.8885200610
        3.3668473803
        1.5249277839
     2963.0037912e-4
     1100.9288974e-4
   0.00142748891130   0.00000000000000   0.00000000000000   0.00000000000000   0.00000000000000
   0.01094352511400   0.00000000000000   0.00000000000000   0.00000000000000   0.00000000000000
   0.05437417159600   0.00000000000000   0.00000000000000   0.00000000000000   0.00000000000000
   0.19018092947000   0.00000000000000   0.00000000000000   0.00000000000000   0.00000000000000
   0.38913021696000   0.00000000000000   0.00000000000000   0.00000000000000   0.00000000000000
   0.30620207088000   0.00000000000000   0.00000000000000   0.00000000000000   0.00000000000000
   0.00000000000000  -0.11198808009000   0.00000000000000   0.00000000000000   0.00000000000000
   0.00000000000000   0.64752124207000   0.00000000000000   0.00000000000000   0.00000000000000
   0.00000000000000   0.44241976651000   0.00000000000000   0.00000000000000   0.00000000000000
   0.00000000000000   0.00000000000000  -0.22857227762000   0.00000000000000   0.00000000000000
   0.00000000000000   0.00000000000000   0.73591359951000   0.00000000000000   0.00000000000000
   0.00000000000000   0.00000000000000   0.44330199577000   0.00000000000000   0.00000000000000
   0.00000000000000   0.00000000000000   0.00000000000000   1.00000000000000   0.00000000000000
   0.00000000000000   0.00000000000000   0.00000000000000   0.00000000000000   1.00000000000000
* p-type functions
   10    4
     1455.9068120000
      343.7510183100
      109.2955496400
       39.7077110220
       14.9501852320
        8.0208962094
        3.2934649756
        1.4058602438
     4507.6123226e-4
     1335.3413325e-4
   0.00882035970430   0.00000000000000   0.00000000000000   0.00000000000000
   0.06687585196700   0.00000000000000   0.00000000000000   0.00000000000000
   0.26640578080000   0.00000000000000   0.00000000000000   0.00000000000000
   0.53834928422000   0.00000000000000   0.00000000000000   0.00000000000000
   0.36303281993000   0.00000000000000   0.00000000000000   0.00000000000000
   0.00000000000000   0.34153807025000   0.00000000000000   0.00000000000000
   0.00000000000000   0.57257906583000   0.00000000000000   0.00000000000000
   0.00000000000000   0.25549813222000   0.00000000000000   0.00000000000000
   0.00000000000000   0.00000000000000   1.00000000000000   0.00000000000000
   0.00000000000000   0.00000000000000   0.00000000000000   1.00000000000000
* d-type functions
    6    3
       94.4940240440
       27.1881852600
        9.5091567352
        3.4170516853
        1.1479590083
        0.3380000000
   0.02349010109800   0.00000000000000   0.00000000000000
   0.13747735767000   0.00000000000000   0.00000000000000
   0.36649929124000   0.00000000000000   0.00000000000000
   0.48750989884000   0.00000000000000   0.00000000000000
   0.00000000000000   0.27657943383000   0.00000000000000
   0.00000000000000   0.00000000000000   1.00000000000000

/Br.def-SVP.Schafer.14s10p6d.5s4p3d.
A. Schafer, H. Horn, R. Ahlrichs. J. Chem. Phys. 97 (1992) 2571-2577. doi:10.1063/1.463096
BROMINE (14s,10p,6d) -> [5s,4p,3d]
    35.0   2
* s-type functions
   14    5
   113286.3877600000
    17009.6263030000
     3870.1842567000
     1093.0357227000
      356.3972179700
      123.1253964300
      236.7408400700
       28.4686610700
       11.8834437220
       21.2696333120
        3.6129226841
        1.6626648969
     3482.3793232e-4
     1301.9031394e-4
   0.00142830377790   0.00000000000000   0.00000000000000   0.00000000000000   0.00000000000000
   0.01095041749600   0.00000000000000   0.00000000000000   0.00000000000000   0.00000000000000
   0.05442100660400   0.00000000000000   0.00000000000000   0.00000000000000   0.00000000000000
   0.19047907695000   0.00000000000000   0.00000000000000   0.00000000000000   0.00000000000000
   0.39024642737000   0.00000000000000   0.00000000000000   0.00000000000000   0.00000000000000
   0.30814432514000   0.00000000000000   0.00000000000000   0.00000000000000   0.00000000000000
   0.00000000000000  -0.11228065671000   0.00000000000000   0.00000000000000   0.00000000000000
   0.00000000000000   0.64775962312000   0.00000000000000   0.00000000000000   0.00000000000000
   0.00000000000000   0.44235575986000   0.00000000000000   0.00000000000000   0.00000000000000
   0.00000000000000   0.00000000000000  -0.22642576323000   0.00000000000000   0.00000000000000
   0.00000000000000   0.00000000000000   0.73823712008000   0.00000000000000   0.00000000000000
   0.00000000000000   0.00000000000000   0.42683868694000   0.00000000000000   0.00000000000000
   0.00000000000000   0.00000000000000   0.00000000000000   1.00000000000000   0.00000000000000
   0.00000000000000   0.00000000000000   0.00000000000000   0.00000000000000   1.00000000000000
* p-type functions
   10    4
     1560.2801881000
      368.4785920500
      117.2297884900
       42.6489092480
       16.0872250960
        8.6352810058
        3.5613665502
        1.5292626609
     5306.4294848e-4
     1570.2758965e-4
   0.00871666690720   0.00000000000000   0.00000000000000   0.00000000000000
   0.06624363742000   0.00000000000000   0.00000000000000   0.00000000000000
   0.26495610385000   0.00000000000000   0.00000000000000   0.00000000000000
   0.53839160587000   0.00000000000000   0.00000000000000   0.00000000000000
   0.36579387888000   0.00000000000000   0.00000000000000   0.00000000000000
   0.00000000000000   0.34248787366000   0.00000000000000   0.00000000000000
   0.00000000000000   0.57500678213000   0.00000000000000   0.00000000000000
   0.00000000000000   0.24330394172000   0.00000000000000   0.00000000000000
   0.00000000000000   0.00000000000000   1.00000000000000   0.00000000000000
   0.00000000000000   0.00000000000000   0.00000000000000   1.00000000000000
* d-type functions
    6    3
      104.8551864200
       30.2811436880
       10.6513942670
        3.8699456233
        1.3240876762
        0.3890000000
   0.02265014758100   0.00000000000000   0.00000000000000
   0.13455483230000   0.00000000000000   0.00000000000000
   0.36474454537000   0.00000000000000   0.00000000000000
   0.49044587056000   0.00000000000000   0.00000000000000
   0.00000000000000   0.27137289040000   0.00000000000000
   0.00000000000000   0.00000000000000   1.00000000000000

/Kr.def-SVP.Schafer.14s10p6d.5s4p3d.
A. Schafer, H. Horn, R. Ahlrichs. J. Chem. Phys. 97 (1992) 2571-2577. doi:10.1063/1.463096
KRYPTON (14s,10p,6d) -> [5s,4p,3d]
    36.0   2
* s-type functions
   14    5
   120165.6487500000
    18042.5001690000
     4105.1800388000
     1159.4447248000
      378.1381034600
      130.6761004500
      250.9637335300
       30.2659303800
       12.6681107570
       22.6979401010
        3.8673017398
        1.8013706671
     4030.8639136e-4
     1517.0527749e-4
   0.00142942344960   0.00000000000000   0.00000000000000   0.00000000000000   0.00000000000000
   0.01095959702000   0.00000000000000   0.00000000000000   0.00000000000000   0.00000000000000
   0.05447964747000   0.00000000000000   0.00000000000000   0.00000000000000   0.00000000000000
   0.19081239122000   0.00000000000000   0.00000000000000   0.00000000000000   0.00000000000000
   0.39140445949000   0.00000000000000   0.00000000000000   0.00000000000000   0.00000000000000
   0.31007346689000   0.00000000000000   0.00000000000000   0.00000000000000   0.00000000000000
   0.00000000000000  -0.11258604011000   0.00000000000000   0.00000000000000   0.00000000000000
   0.00000000000000   0.64816322524000   0.00000000000000   0.00000000000000   0.00000000000000
   0.00000000000000   0.44240238994000   0.00000000000000   0.00000000000000   0.00000000000000
   0.00000000000000   0.00000000000000  -0.22391964908000   0.00000000000000   0.00000000000000
   0.00000000000000   0.00000000000000   0.74060953026000   0.00000000000000   0.00000000000000
   0.00000000000000   0.00000000000000   0.40803658445000   0.00000000000000   0.00000000000000
   0.00000000000000   0.00000000000000   0.00000000000000   1.00000000000000   0.00000000000000
   0.00000000000000   0.00000000000000   0.00000000000000   0.00000000000000   1.00000000000000
* p-type functions
   10    4
     1668.5736623000
      394.1386279800
      125.4664485400
       45.7049927290
       17.2701332290
        9.2699487770
        3.8364617719
        1.6467163312
     6147.9686489e-4
     1831.9467414e-4
   0.00862150098030   0.00000000000000   0.00000000000000   0.00000000000000
   0.06566550688400   0.00000000000000   0.00000000000000   0.00000000000000
   0.26366576697000   0.00000000000000   0.00000000000000   0.00000000000000
   0.53867658574000   0.00000000000000   0.00000000000000   0.00000000000000
   0.36865167502000   0.00000000000000   0.00000000000000   0.00000000000000
   0.00000000000000   0.34346189015000   0.00000000000000   0.00000000000000
   0.00000000000000   0.57784776196000   0.00000000000000   0.00000000000000
   0.00000000000000   0.23075615197000   0.00000000000000   0.00000000000000
   0.00000000000000   0.00000000000000   1.00000000000000   0.00000000000000
   0.00000000000000   0.00000000000000   0.00000000000000   1.00000000000000
* d-type functions
    6    3
      115.5586860300
       33.4779858640
       11.8344502070
        4.3408254894
        1.5079273157
        0.4430000000
   0.02194548533300   0.00000000000000   0.00000000000000
   0.13211212879000   0.00000000000000   0.00000000000000
   0.36333306964000   0.00000000000000   0.00000000000000
   0.49300484446000   0.00000000000000   0.00000000000000
   0.00000000000000   0.26676858913000   0.00000000000000
   0.00000000000000   0.00000000000000   1.00000000000000
