************************************************************************
* This file is part of OpenMolcas.                                     *
*                                                                      *
* OpenMolcas is free software; you can redistribute it and/or modify   *
* it under the terms of the GNU Lesser General Public License, v. 2.1. *
* OpenMolcas is distributed in the hope that it will be useful, but it *
* is provided "as is" and without any express or implied warranties.   *
* For more details see the full text of the license in the file        *
* LICENSE or in <http://www.gnu.org/licenses/>.                        *
************************************************************************

#Hamiltonian NRH
#Nucleus UNK
#Contraction SEG
#AllElectron AE_

************************************************************************
* This file has been generated from Basis Set Exchange data:           *
*   https://www.basissetexchange.org                                   *
* Version: unknown                                                     *
************************************************************************

/H.def-TZVP..5s1p.3s1p.
Unpublished
HYDROGEN (5s,1p) -> [3s,1p]
     1.0   1
* s-type functions
    5    3
       34.0613410000
        5.1235746000
        1.1646626000
        0.3272304100
        0.1030724100
   0.00602519780000   0.00000000000000   0.00000000000000
   0.04502109400000   0.00000000000000   0.00000000000000
   0.20189726000000   0.00000000000000   0.00000000000000
   0.00000000000000   1.00000000000000   0.00000000000000
   0.00000000000000   0.00000000000000   1.00000000000000
* p-type functions
    1    1
        0.8000000000
   1.00000000000000

/He.def-TZVP..5s1p.3s1p.
Unpublished
HELIUM (5s,1p) -> [3s,1p]
     2.0   1
* s-type functions
    5    3
       98.0783216160
       14.7644042470
        3.3185831473
     8741.3869551e-4
     2445.9897208e-4
   0.00758030649670   0.00000000000000   0.00000000000000
   0.05484862093700   0.00000000000000   0.00000000000000
   0.22074382186000   0.00000000000000   0.00000000000000
   0.00000000000000   1.00000000000000   0.00000000000000
   0.00000000000000   0.00000000000000   1.00000000000000
* p-type functions
    1    1
        1.0000000000
   1.00000000000000

/Li.def-TZVP.Schafer.11s2p.5s1p.
A. Schafer, C. Huber, R. Ahlrichs. J. Chem. Phys. 100 (1994) 5829-5835. doi:10.1063/1.467146
LITHIUM (11s,2p) -> [5s,1p]
     3.0   1
* s-type functions
   11    5
     6269.2628010000
      940.3161243100
      214.2210752800
       60.7598401840
       19.9151520320
        7.3171509797
        2.9724674216
        1.2639852314
     5142.7489953e-4
     7703.0885901e-5
     2893.8896433e-5
   0.00020540968826   0.00000000000000   0.00000000000000   0.00000000000000   0.00000000000000
   0.00159165540890   0.00000000000000   0.00000000000000   0.00000000000000   0.00000000000000
   0.00828698297070   0.00000000000000   0.00000000000000   0.00000000000000   0.00000000000000
   0.03385637424900   0.00000000000000   0.00000000000000   0.00000000000000   0.00000000000000
   0.11103225876000   0.00000000000000   0.00000000000000   0.00000000000000   0.00000000000000
   0.27449383329000   0.00000000000000   0.00000000000000   0.00000000000000   0.00000000000000
   0.00000000000000   0.23792456411000   0.00000000000000   0.00000000000000   0.00000000000000
   0.00000000000000   0.30765411924000   0.00000000000000   0.00000000000000   0.00000000000000
   0.00000000000000   0.00000000000000   1.00000000000000   0.00000000000000   0.00000000000000
   0.00000000000000   0.00000000000000   0.00000000000000   1.00000000000000   0.00000000000000
   0.00000000000000   0.00000000000000   0.00000000000000   0.00000000000000   1.00000000000000
* p-type functions
    2    1
        0.4500000000
        0.1000000000
   0.37100000000000
   1.00000000000000

/Be.def-TZVP.Schafer.11s4p.5s2p.
A. Schafer, C. Huber, R. Ahlrichs. J. Chem. Phys. 100 (1994) 5829-5835. doi:10.1063/1.467146
BERYLLIUM (11s,4p) -> [5s,2p]
     4.0   1
* s-type functions
   11    5
     4700.2365626000
      704.8284562200
      160.4311047800
       45.4253473360
       14.7983341250
        5.3512452537
        2.1542044819
        0.9336374440
     1879.1432989e-4
     7464.8267947e-5
     3265.0484598e-5
   0.00023584389316   0.00000000000000   0.00000000000000   0.00000000000000   0.00000000000000
   0.00182437910190   0.00000000000000   0.00000000000000   0.00000000000000   0.00000000000000
   0.00939661482240   0.00000000000000   0.00000000000000   0.00000000000000   0.00000000000000
   0.03690892415900   0.00000000000000   0.00000000000000   0.00000000000000   0.00000000000000
   0.10897561281000   0.00000000000000   0.00000000000000   0.00000000000000   0.00000000000000
   0.21694284551000   0.00000000000000   0.00000000000000   0.00000000000000   0.00000000000000
   0.00000000000000   0.44695408857000   0.00000000000000   0.00000000000000   0.00000000000000
   0.00000000000000   0.20866985771000   0.00000000000000   0.00000000000000   0.00000000000000
   0.00000000000000   0.00000000000000   1.00000000000000   0.00000000000000   0.00000000000000
   0.00000000000000   0.00000000000000   0.00000000000000   1.00000000000000   0.00000000000000
   0.00000000000000   0.00000000000000   0.00000000000000   0.00000000000000   1.00000000000000
* p-type functions
    4    2
        3.6316917145
     7169.5694366e-4
        0.1954193286
      605.1546589e-4
  -0.02903399830500   0.00000000000000
  -0.16877854032000   0.00000000000000
  -0.51403419628000   0.00000000000000
   0.00000000000000   1.00000000000000

/B.def-TZVP.Schafer.11s6p1d.5s3p1d.
A. Schafer, C. Huber, R. Ahlrichs. J. Chem. Phys. 100 (1994) 5829-5835. doi:10.1063/1.467146
BORON (11s,6p,1d) -> [5s,3p,1d]
     5.0   2
* s-type functions
   11    5
     8564.8660687000
     1284.1516263000
      292.2787160400
       82.7754691760
       27.0179392690
        9.8149619660
        3.9318559059
        1.6595599712
     3576.2965239e-4
     1424.6277496e-4
     6056.0594768e-5
   0.00022837198155   0.00000000000000   0.00000000000000   0.00000000000000   0.00000000000000
   0.00176825764470   0.00000000000000   0.00000000000000   0.00000000000000   0.00000000000000
   0.00914070805160   0.00000000000000   0.00000000000000   0.00000000000000   0.00000000000000
   0.03634263898900   0.00000000000000   0.00000000000000   0.00000000000000   0.00000000000000
   0.11063458441000   0.00000000000000   0.00000000000000   0.00000000000000   0.00000000000000
   0.23367344321000   0.00000000000000   0.00000000000000   0.00000000000000   0.00000000000000
   0.00000000000000   0.41818777978000   0.00000000000000   0.00000000000000   0.00000000000000
   0.00000000000000   0.22325473798000   0.00000000000000   0.00000000000000   0.00000000000000
   0.00000000000000   0.00000000000000   1.00000000000000   0.00000000000000   0.00000000000000
   0.00000000000000   0.00000000000000   0.00000000000000   1.00000000000000   0.00000000000000
   0.00000000000000   0.00000000000000   0.00000000000000   0.00000000000000   1.00000000000000
* p-type functions
    6    3
       22.4538758030
        5.1045058330
        1.4986081344
     5092.7831315e-4
     1814.7077798e-4
     6462.1893904e-5
   0.00502655751790   0.00000000000000   0.00000000000000
   0.03280173896500   0.00000000000000   0.00000000000000
   0.13151230768000   0.00000000000000   0.00000000000000
   0.33197167769000   0.00000000000000   0.00000000000000
   0.00000000000000   0.47314319570000   0.00000000000000
   0.00000000000000   0.00000000000000   0.25802783943000
* d-type functions
    1    1
        0.5000000000
   1.00000000000000

/C.def-TZVP.Schafer.11s6p1d.5s3p1d.
A. Schafer, C. Huber, R. Ahlrichs. J. Chem. Phys. 100 (1994) 5829-5835. doi:10.1063/1.467146
CARBON (11s,6p,1d) -> [5s,3p,1d]
     6.0   2
* s-type functions
   11    5
    13575.3496820000
     2035.2333680000
      463.2256235900
      131.2001959800
       42.8530158910
       15.5841857660
        6.2067138508
        2.5764896527
     5769.6339419e-4
     2297.2831358e-4
     9516.4440028e-5
   0.00022245814352   0.00000000000000   0.00000000000000   0.00000000000000   0.00000000000000
   0.00172327382520   0.00000000000000   0.00000000000000   0.00000000000000   0.00000000000000
   0.00892557153140   0.00000000000000   0.00000000000000   0.00000000000000   0.00000000000000
   0.03572798450200   0.00000000000000   0.00000000000000   0.00000000000000   0.00000000000000
   0.11076259931000   0.00000000000000   0.00000000000000   0.00000000000000   0.00000000000000
   0.24295627626000   0.00000000000000   0.00000000000000   0.00000000000000   0.00000000000000
   0.00000000000000   0.41440263448000   0.00000000000000   0.00000000000000   0.00000000000000
   0.00000000000000   0.23744968655000   0.00000000000000   0.00000000000000   0.00000000000000
   0.00000000000000   0.00000000000000   1.00000000000000   0.00000000000000   0.00000000000000
   0.00000000000000   0.00000000000000   0.00000000000000   1.00000000000000   0.00000000000000
   0.00000000000000   0.00000000000000   0.00000000000000   0.00000000000000   1.00000000000000
* p-type functions
    6    3
       34.6972322440
        7.9582622826
        2.3780826883
     8143.3208183e-4
     2888.7547253e-4
     1005.6823671e-4
   0.00533336578050   0.00000000000000   0.00000000000000
   0.03586410909200   0.00000000000000   0.00000000000000
   0.14215873329000   0.00000000000000   0.00000000000000
   0.34270471845000   0.00000000000000   0.00000000000000
   0.00000000000000   0.46445822433000   0.00000000000000
   0.00000000000000   0.00000000000000   0.24955789874000
* d-type functions
    1    1
        0.8000000000
   1.00000000000000

/N.def-TZVP.Schafer.11s6p1d.5s3p1d.
A. Schafer, C. Huber, R. Ahlrichs. J. Chem. Phys. 100 (1994) 5829-5835. doi:10.1063/1.467146
NITROGEN (11s,6p,1d) -> [5s,3p,1d]
     7.0   2
* s-type functions
   11    5
    19730.8006470000
     2957.8958745000
      673.2213359500
      190.6824949400
       62.2954418980
       22.6541611820
        8.9791477428
        3.6863002370
     8466.0076805e-4
     3364.7133771e-4
     1364.7653675e-4
   0.00021887984991   0.00000000000000   0.00000000000000   0.00000000000000   0.00000000000000
   0.00169607088030   0.00000000000000   0.00000000000000   0.00000000000000   0.00000000000000
   0.00879546035380   0.00000000000000   0.00000000000000   0.00000000000000   0.00000000000000
   0.03535938260500   0.00000000000000   0.00000000000000   0.00000000000000   0.00000000000000
   0.11095789217000   0.00000000000000   0.00000000000000   0.00000000000000   0.00000000000000
   0.24982972552000   0.00000000000000   0.00000000000000   0.00000000000000   0.00000000000000
   0.00000000000000   0.40623896148000   0.00000000000000   0.00000000000000   0.00000000000000
   0.00000000000000   0.24338217176000   0.00000000000000   0.00000000000000   0.00000000000000
   0.00000000000000   0.00000000000000   1.00000000000000   0.00000000000000   0.00000000000000
   0.00000000000000   0.00000000000000   0.00000000000000   1.00000000000000   0.00000000000000
   0.00000000000000   0.00000000000000   0.00000000000000   0.00000000000000   1.00000000000000
* p-type functions
    6    3
       49.2003805100
       11.3467905370
        3.4273972411
        1.1785525134
     4164.2204972e-4
     1426.0826011e-4
   0.00555524167510   0.00000000000000   0.00000000000000
   0.03805237972300   0.00000000000000   0.00000000000000
   0.14953671029000   0.00000000000000   0.00000000000000
   0.34949305230000   0.00000000000000   0.00000000000000
   0.00000000000000   0.45843153697000   0.00000000000000
   0.00000000000000   0.00000000000000   0.24428771672000
* d-type functions
    1    1
        1.0000000000
   1.00000000000000

/O.def-TZVP.Schafer.11s6p1d.5s3p1d.
A. Schafer, C. Huber, R. Ahlrichs. J. Chem. Phys. 100 (1994) 5829-5835. doi:10.1063/1.467146
OXYGEN (11s,6p,1d) -> [5s,3p,1d]
     8.0   2
* s-type functions
   11    5
    27032.3826310000
     4052.3871392000
      922.3272271000
      261.2407098900
       85.3546413510
       31.0350352450
       12.2608607280
        4.9987076005
        1.1703108158
     4647.4740994e-4
     1850.4536357e-4
   0.00021726302465   0.00000000000000   0.00000000000000   0.00000000000000   0.00000000000000
   0.00168386621990   0.00000000000000   0.00000000000000   0.00000000000000   0.00000000000000
   0.00873956162650   0.00000000000000   0.00000000000000   0.00000000000000   0.00000000000000
   0.03523996880800   0.00000000000000   0.00000000000000   0.00000000000000   0.00000000000000
   0.11153519115000   0.00000000000000   0.00000000000000   0.00000000000000   0.00000000000000
   0.25588953961000   0.00000000000000   0.00000000000000   0.00000000000000   0.00000000000000
   0.00000000000000   0.39768730901000   0.00000000000000   0.00000000000000   0.00000000000000
   0.00000000000000   0.24627849430000   0.00000000000000   0.00000000000000   0.00000000000000
   0.00000000000000   0.00000000000000   1.00000000000000   0.00000000000000   0.00000000000000
   0.00000000000000   0.00000000000000   0.00000000000000   1.00000000000000   0.00000000000000
   0.00000000000000   0.00000000000000   0.00000000000000   0.00000000000000   1.00000000000000
* p-type functions
    6    3
       63.2749548010
       14.6270493790
        4.4501223456
        1.5275799647
     5293.5117943e-4
        0.1747842127
   0.00606851034180   0.00000000000000   0.00000000000000
   0.04191257582400   0.00000000000000   0.00000000000000
   0.16153841088000   0.00000000000000   0.00000000000000
   0.35706951311000   0.00000000000000   0.00000000000000
   0.00000000000000   0.44794207502000   0.00000000000000
   0.00000000000000   0.00000000000000   0.24446069663000
* d-type functions
    1    1
        1.2000000000
   1.00000000000000

/F.def-TZVP.Schafer.11s6p1d.5s3p1d.
A. Schafer, C. Huber, R. Ahlrichs. J. Chem. Phys. 100 (1994) 5829-5835. doi:10.1063/1.467146
FLUORINE (11s,6p,1d) -> [5s,3p,1d]
     9.0   2
* s-type functions
   11    5
    35479.1004410000
     5318.4728983000
     1210.4810975000
      342.8551814000
      112.0194318100
       40.7147402480
       16.0396781110
        6.5038186740
        1.5440477509
     6122.3452862e-4
     2402.7979698e-4
   0.00021545014888   0.00000000000000   0.00000000000000   0.00000000000000   0.00000000000000
   0.00167006865270   0.00000000000000   0.00000000000000   0.00000000000000   0.00000000000000
   0.00867332114760   0.00000000000000   0.00000000000000   0.00000000000000   0.00000000000000
   0.03504993317500   0.00000000000000   0.00000000000000   0.00000000000000   0.00000000000000
   0.11165320133000   0.00000000000000   0.00000000000000   0.00000000000000   0.00000000000000
   0.25988506647000   0.00000000000000   0.00000000000000   0.00000000000000   0.00000000000000
   0.00000000000000   0.39422966880000   0.00000000000000   0.00000000000000   0.00000000000000
   0.00000000000000   0.24998238551000   0.00000000000000   0.00000000000000   0.00000000000000
   0.00000000000000   0.00000000000000   1.00000000000000   0.00000000000000   0.00000000000000
   0.00000000000000   0.00000000000000   0.00000000000000   1.00000000000000   0.00000000000000
   0.00000000000000   0.00000000000000   0.00000000000000   0.00000000000000   1.00000000000000
* p-type functions
    6    3
       80.2339004830
       18.5940107430
        5.6867902653
        1.9511006294
     6697.0211298e-4
        0.2165130041
   0.00636859991340   0.00000000000000   0.00000000000000
   0.04430314353000   0.00000000000000   0.00000000000000
   0.16867248708000   0.00000000000000   0.00000000000000
   0.36166346255000   0.00000000000000   0.00000000000000
   0.00000000000000   0.44202901491000   0.00000000000000
   0.00000000000000   0.00000000000000   0.24319875730000
* d-type functions
    1    1
        1.4000000000
   1.00000000000000

/Ne.def-TZVP.Schafer.11s6p1d.5s3p1d.
A. Schafer, C. Huber, R. Ahlrichs. J. Chem. Phys. 100 (1994) 5829-5835. doi:10.1063/1.467146
NEON (11s,6p,1d) -> [5s,3p,1d]
    10.0   2
* s-type functions
   11    5
    45069.4640220000
     6755.9768656000
     1537.6502864000
      435.5169766700
      142.2865563800
       51.6921538040
       20.3158704900
        8.2021942646
        1.9681276278
     7790.4756001e-4
     3022.9502043e-4
   0.00021687155182   0.00000000000000   0.00000000000000   0.00000000000000   0.00000000000000
   0.00168127367570   0.00000000000000   0.00000000000000   0.00000000000000   0.00000000000000
   0.00873560627820   0.00000000000000   0.00000000000000   0.00000000000000   0.00000000000000
   0.03536126692200   0.00000000000000   0.00000000000000   0.00000000000000   0.00000000000000
   0.11321521454000   0.00000000000000   0.00000000000000   0.00000000000000   0.00000000000000
   0.26654653104000   0.00000000000000   0.00000000000000   0.00000000000000   0.00000000000000
   0.00000000000000   0.39631959951000   0.00000000000000   0.00000000000000   0.00000000000000
   0.00000000000000   0.25582811251000   0.00000000000000   0.00000000000000   0.00000000000000
   0.00000000000000   0.00000000000000   1.00000000000000   0.00000000000000   0.00000000000000
   0.00000000000000   0.00000000000000   0.00000000000000   1.00000000000000   0.00000000000000
   0.00000000000000   0.00000000000000   0.00000000000000   0.00000000000000   1.00000000000000
* p-type functions
    6    3
       99.7829960320
       23.1761241010
        7.1163945872
        2.4418711435
     8338.9605766e-4
     2660.7311301e-4
   0.00655692341630   0.00000000000000   0.00000000000000
   0.04588800913800   0.00000000000000   0.00000000000000
   0.17331287812000   0.00000000000000   0.00000000000000
   0.36475267512000   0.00000000000000   0.00000000000000
   0.00000000000000   0.43831075171000   0.00000000000000
   0.00000000000000   0.00000000000000   0.24160029835000
* d-type functions
    1    1
        1.8880000000
   1.00000000000000

/Na.def-TZVP.Schafer.14s7p.5s3p.
A. Schafer, C. Huber, R. Ahlrichs. J. Chem. Phys. 100 (1994) 5829-5835. doi:10.1063/1.467146
SODIUM (14s,7p) -> [5s,3p]
    11.0   1
* s-type functions
   14    5
    26041.1099270000
     3906.1268548000
      888.9745499300
      251.4549796100
       81.6501435120
       28.9041584010
       10.6257829320
       53.7694101790
       16.3082430250
        2.3730384125
     9573.0772603e-4
     4080.6460959e-4
     4996.7582329e-5
      192.6861625e-4
   0.00061806342811   0.00000000000000   0.00000000000000   0.00000000000000   0.00000000000000
   0.00477486044140   0.00000000000000   0.00000000000000   0.00000000000000   0.00000000000000
   0.02447168482900   0.00000000000000   0.00000000000000   0.00000000000000   0.00000000000000
   0.09475539497700   0.00000000000000   0.00000000000000   0.00000000000000   0.00000000000000
   0.26867496920000   0.00000000000000   0.00000000000000   0.00000000000000   0.00000000000000
   0.47925475440000   0.00000000000000   0.00000000000000   0.00000000000000   0.00000000000000
   0.33248591469000   0.00000000000000   0.00000000000000   0.00000000000000   0.00000000000000
   0.00000000000000   0.01952773187200   0.00000000000000   0.00000000000000   0.00000000000000
   0.00000000000000   0.09264801079400   0.00000000000000   0.00000000000000   0.00000000000000
   0.00000000000000  -0.39938670172000   0.00000000000000   0.00000000000000   0.00000000000000
   0.00000000000000   0.00000000000000   1.64285953910000   0.00000000000000   0.00000000000000
   0.00000000000000   0.00000000000000   0.55692596966000   0.00000000000000   0.00000000000000
   0.00000000000000   0.00000000000000   0.00000000000000   1.00000000000000   0.00000000000000
   0.00000000000000   0.00000000000000   0.00000000000000   0.00000000000000   1.00000000000000
* p-type functions
    7    3
      138.0797998900
       32.2327003930
        9.9816075360
        3.4822033928
        1.2299134620
     4174.3959423e-4
        0.0520000000
   0.00579518919290   0.00000000000000   0.00000000000000
   0.04162084625100   0.00000000000000   0.00000000000000
   0.16281916885000   0.00000000000000   0.00000000000000
   0.36011784647000   0.00000000000000   0.00000000000000
   0.44858979889000   0.00000000000000   0.00000000000000
   0.00000000000000   0.23040759559000   0.00000000000000
   0.00000000000000   0.00000000000000   1.00000000000000

/Mg.def-TZVP.Schafer.14s7p.5s3p.
A. Schafer, C. Huber, R. Ahlrichs. J. Chem. Phys. 100 (1994) 5829-5835. doi:10.1063/1.467146
MAGNESIUM (14s,7p) -> [5s,3p]
    12.0   1
* s-type functions
   14    5
    31438.3495550000
     4715.5153354000
     1073.1629247000
      303.5723876800
       98.6262510420
       34.9438084170
       12.8597851990
       64.8769130040
       19.7255207770
        2.8951804339
        1.1960454710
     5432.9451156e-4
     1009.9104092e-4
     3686.5728085e-5
   0.00060912311326   0.00000000000000   0.00000000000000   0.00000000000000   0.00000000000000
   0.00470661964650   0.00000000000000   0.00000000000000   0.00000000000000   0.00000000000000
   0.02413582065700   0.00000000000000   0.00000000000000   0.00000000000000   0.00000000000000
   0.09362895983400   0.00000000000000   0.00000000000000   0.00000000000000   0.00000000000000
   0.26646742093000   0.00000000000000   0.00000000000000   0.00000000000000   0.00000000000000
   0.47890929917000   0.00000000000000   0.00000000000000   0.00000000000000   0.00000000000000
   0.33698490286000   0.00000000000000   0.00000000000000   0.00000000000000   0.00000000000000
   0.00000000000000   0.01918088930700   0.00000000000000   0.00000000000000   0.00000000000000
   0.00000000000000   0.09091370439200   0.00000000000000   0.00000000000000   0.00000000000000
   0.00000000000000  -0.39563756125000   0.00000000000000   0.00000000000000   0.00000000000000
   0.00000000000000   0.00000000000000   1.68276033730000   0.00000000000000   0.00000000000000
   0.00000000000000   0.00000000000000   0.52141091954000   0.00000000000000   0.00000000000000
   0.00000000000000   0.00000000000000   0.00000000000000   1.00000000000000   0.00000000000000
   0.00000000000000   0.00000000000000   0.00000000000000   0.00000000000000   1.00000000000000
* p-type functions
    7    3
      179.8718961200
       42.1200693760
       13.1205030320
        4.6257503609
        1.6695211016
     5855.1012105e-4
     1891.4796195e-4
   0.00537995490180   0.00000000000000   0.00000000000000
   0.03931801409800   0.00000000000000   0.00000000000000
   0.15740129476000   0.00000000000000   0.00000000000000
   0.35919094128000   0.00000000000000   0.00000000000000
   0.45533379310000   0.00000000000000   0.00000000000000
   0.00000000000000   0.21986432910000   0.00000000000000
   0.00000000000000   0.00000000000000   1.00000000000000

/Al.def-TZVP.Schafer.14s9p1d.5s4p1d.
A. Schafer, C. Huber, R. Ahlrichs. J. Chem. Phys. 100 (1994) 5829-5835. doi:10.1063/1.467146
ALUMINIUM (14s,9p,1d) -> [5s,4p,1d]
    13.0   2
* s-type functions
   14    5
    37792.5507720000
     5668.0682165000
     1289.8582841000
      364.8659602800
      118.5763151500
       42.0248676050
       15.4995016290
       75.2080265980
       23.0314089720
        3.6348797649
        1.6065049957
     7610.3394581e-4
     1655.6708849e-4
     6004.1577113e-5
   0.00057047888709   0.00000000000000   0.00000000000000   0.00000000000000   0.00000000000000
   0.00440930165380   0.00000000000000   0.00000000000000   0.00000000000000   0.00000000000000
   0.02263096741100   0.00000000000000   0.00000000000000   0.00000000000000   0.00000000000000
   0.08802564429500   0.00000000000000   0.00000000000000   0.00000000000000   0.00000000000000
   0.25223701612000   0.00000000000000   0.00000000000000   0.00000000000000   0.00000000000000
   0.45960547169000   0.00000000000000   0.00000000000000   0.00000000000000   0.00000000000000
   0.33277886014000   0.00000000000000   0.00000000000000   0.00000000000000   0.00000000000000
   0.00000000000000   0.01925056019000   0.00000000000000   0.00000000000000   0.00000000000000
   0.00000000000000   0.08790674395200   0.00000000000000   0.00000000000000   0.00000000000000
   0.00000000000000  -0.34246704535000   0.00000000000000   0.00000000000000   0.00000000000000
   0.00000000000000   0.00000000000000   1.51062660580000   0.00000000000000   0.00000000000000
   0.00000000000000   0.00000000000000   0.58071016470000   0.00000000000000   0.00000000000000
   0.00000000000000   0.00000000000000   0.00000000000000   1.00000000000000   0.00000000000000
   0.00000000000000   0.00000000000000   0.00000000000000   0.00000000000000   1.00000000000000
* p-type functions
    9    4
      452.5230319200
      107.0819504900
       34.1310212550
       12.5870374280
        4.9811919704
        2.0070350900
     8008.3714374e-4
     2017.8927472e-4
     5789.5550392e-5
   0.00231108124660   0.00000000000000   0.00000000000000   0.00000000000000
   0.01856864182300   0.00000000000000   0.00000000000000   0.00000000000000
   0.08721623703500   0.00000000000000   0.00000000000000   0.00000000000000
   0.26902101523000   0.00000000000000   0.00000000000000   0.00000000000000
   0.52128324272000   0.00000000000000   0.00000000000000   0.00000000000000
   0.60271687494000   0.00000000000000   0.00000000000000   0.00000000000000
   0.00000000000000   1.00000000000000   0.00000000000000   0.00000000000000
   0.00000000000000   0.00000000000000   1.00000000000000   0.00000000000000
   0.00000000000000   0.00000000000000   0.00000000000000   1.00000000000000
* d-type functions
    1    1
        0.3000000000
   1.00000000000000

/Si.def-TZVP.Schafer.14s9p1d.5s4p1d.
A. Schafer, C. Huber, R. Ahlrichs. J. Chem. Phys. 100 (1994) 5829-5835. doi:10.1063/1.467146
SILICON (14s,9p,1d) -> [5s,4p,1d]
    14.0   2
* s-type functions
   14    5
    44773.3580780000
     6717.1992104000
     1528.8960325000
      432.5474658500
      140.6150522600
       49.8576367240
       18.4349748850
       86.5338861110
       26.6246068460
        4.4953057159
        2.1035045710
        1.0106094922
     2370.1751489e-4
     8570.3405362e-5
   0.00055914765868   0.00000000000000   0.00000000000000   0.00000000000000   0.00000000000000
   0.00432060401890   0.00000000000000   0.00000000000000   0.00000000000000   0.00000000000000
   0.02218709646000   0.00000000000000   0.00000000000000   0.00000000000000   0.00000000000000
   0.08648924911600   0.00000000000000   0.00000000000000   0.00000000000000   0.00000000000000
   0.24939889716000   0.00000000000000   0.00000000000000   0.00000000000000   0.00000000000000
   0.46017197366000   0.00000000000000   0.00000000000000   0.00000000000000   0.00000000000000
   0.34250236575000   0.00000000000000   0.00000000000000   0.00000000000000   0.00000000000000
   0.00000000000000   0.02130006300700   0.00000000000000   0.00000000000000   0.00000000000000
   0.00000000000000   0.09467613931800   0.00000000000000   0.00000000000000   0.00000000000000
   0.00000000000000  -0.32616264859000   0.00000000000000   0.00000000000000   0.00000000000000
   0.00000000000000   0.00000000000000   1.39808038500000   0.00000000000000   0.00000000000000
   0.00000000000000   0.00000000000000   0.63865786699000   0.00000000000000   0.00000000000000
   0.00000000000000   0.00000000000000   0.00000000000000   1.00000000000000   0.00000000000000
   0.00000000000000   0.00000000000000   0.00000000000000   0.00000000000000   1.00000000000000
* p-type functions
    9    4
      394.4750362800
       93.1376831040
       29.5196087420
       10.7816637910
        4.1626574778
        1.6247972989
     5430.6660493e-4
     2058.2073956e-4
     7005.3487306e-5
   0.00262856939590   0.00000000000000   0.00000000000000   0.00000000000000
   0.02055625774900   0.00000000000000   0.00000000000000   0.00000000000000
   0.09207026280100   0.00000000000000   0.00000000000000   0.00000000000000
   0.25565889739000   0.00000000000000   0.00000000000000   0.00000000000000
   0.42111707185000   0.00000000000000   0.00000000000000   0.00000000000000
   0.34401746318000   0.00000000000000   0.00000000000000   0.00000000000000
   0.00000000000000   1.00000000000000   0.00000000000000   0.00000000000000
   0.00000000000000   0.00000000000000   1.00000000000000   0.00000000000000
   0.00000000000000   0.00000000000000   0.00000000000000   1.00000000000000
* d-type functions
    1    1
        0.3500000000
   1.00000000000000

/P.def-TZVP.Schafer.14s9p1d.5s4p1d.
A. Schafer, C. Huber, R. Ahlrichs. J. Chem. Phys. 100 (1994) 5829-5835. doi:10.1063/1.467146
PHOSPHORUS (14s,9p,1d) -> [5s,4p,1d]
    15.0   2
* s-type functions
   14    5
    52426.9992330000
     7863.2660552000
     1789.5227333000
      506.2730016500
      164.6069854600
       58.3919187220
       21.6436632010
       99.0138376200
       30.5504398170
        5.4537087661
        2.6503362563
        1.2726688867
     3164.5005203e-4
     1141.7466938e-4
   0.00055207164100   0.00000000000000   0.00000000000000   0.00000000000000   0.00000000000000
   0.00426785953080   0.00000000000000   0.00000000000000   0.00000000000000   0.00000000000000
   0.02193152918600   0.00000000000000   0.00000000000000   0.00000000000000   0.00000000000000
   0.08566716837300   0.00000000000000   0.00000000000000   0.00000000000000   0.00000000000000
   0.24840686605000   0.00000000000000   0.00000000000000   0.00000000000000   0.00000000000000
   0.46336753971000   0.00000000000000   0.00000000000000   0.00000000000000   0.00000000000000
   0.35350558156000   0.00000000000000   0.00000000000000   0.00000000000000   0.00000000000000
   0.00000000000000   0.02189567995800   0.00000000000000   0.00000000000000   0.00000000000000
   0.00000000000000   0.09565047029500   0.00000000000000   0.00000000000000   0.00000000000000
   0.00000000000000  -0.29454270186000   0.00000000000000   0.00000000000000   0.00000000000000
   0.00000000000000   0.00000000000000   1.32943812000000   0.00000000000000   0.00000000000000
   0.00000000000000   0.00000000000000   0.66109396473000   0.00000000000000   0.00000000000000
   0.00000000000000   0.00000000000000   0.00000000000000   1.00000000000000   0.00000000000000
   0.00000000000000   0.00000000000000   0.00000000000000   0.00000000000000   1.00000000000000
* p-type functions
    9    4
      472.2721924800
      111.5888275600
       35.4459364180
       12.9907768750
        5.0486221658
        1.9934049566
        0.6652728443
     2551.6832128e-4
     9035.7762251e-5
   0.00257106230520   0.00000000000000   0.00000000000000   0.00000000000000
   0.02025029799900   0.00000000000000   0.00000000000000   0.00000000000000
   0.09158071678700   0.00000000000000   0.00000000000000   0.00000000000000
   0.25749454014000   0.00000000000000   0.00000000000000   0.00000000000000
   0.42862899758000   0.00000000000000   0.00000000000000   0.00000000000000
   0.34359817849000   0.00000000000000   0.00000000000000   0.00000000000000
   0.00000000000000   1.00000000000000   0.00000000000000   0.00000000000000
   0.00000000000000   0.00000000000000   1.00000000000000   0.00000000000000
   0.00000000000000   0.00000000000000   0.00000000000000   1.00000000000000
* d-type functions
    1    1
        0.4500000000
   1.00000000000000

/S.def-TZVP.Schafer.14s9p1d.5s4p1d.
A. Schafer, C. Huber, R. Ahlrichs. J. Chem. Phys. 100 (1994) 5829-5835. doi:10.1063/1.467146
SULFUR (14s,9p,1d) -> [5s,4p,1d]
    16.0   2
* s-type functions
   14    5
    60700.9281040000
     9102.6106854000
     2071.4166009000
      586.0247682100
      190.5539502100
       67.6303842600
       25.1273069050
      112.5746301000
       34.7955542170
        6.5115556215
        3.2399032261
        1.5477160881
     4054.1030112e-4
     1455.0651059e-4
   0.00054695944225   0.00000000000000   0.00000000000000   0.00000000000000   0.00000000000000
   0.00422972245570   0.00000000000000   0.00000000000000   0.00000000000000   0.00000000000000
   0.02174782415900   0.00000000000000   0.00000000000000   0.00000000000000   0.00000000000000
   0.08510005358900   0.00000000000000   0.00000000000000   0.00000000000000   0.00000000000000
   0.24799128459000   0.00000000000000   0.00000000000000   0.00000000000000   0.00000000000000
   0.46703640406000   0.00000000000000   0.00000000000000   0.00000000000000   0.00000000000000
   0.36434587550000   0.00000000000000   0.00000000000000   0.00000000000000   0.00000000000000
   0.00000000000000   0.02167004024000   0.00000000000000   0.00000000000000   0.00000000000000
   0.00000000000000   0.09360230176000   0.00000000000000   0.00000000000000   0.00000000000000
   0.00000000000000  -0.26068001422000   0.00000000000000   0.00000000000000   0.00000000000000
   0.00000000000000   0.00000000000000   1.28420894350000   0.00000000000000   0.00000000000000
   0.00000000000000   0.00000000000000   0.66036416584000   0.00000000000000   0.00000000000000
   0.00000000000000   0.00000000000000   0.00000000000000   1.00000000000000   0.00000000000000
   0.00000000000000   0.00000000000000   0.00000000000000   0.00000000000000   1.00000000000000
* p-type functions
    9    4
      564.3671602700
      133.4262437900
       42.4682711890
       15.6165275800
        6.1093988469
        2.4404160198
     8388.2201296e-4
        0.3128874690
     1077.0109004e-4
   0.00247967963170   0.00000000000000   0.00000000000000   0.00000000000000
   0.01967793025000   0.00000000000000   0.00000000000000   0.00000000000000
   0.08998000825800   0.00000000000000   0.00000000000000   0.00000000000000
   0.25705880575000   0.00000000000000   0.00000000000000   0.00000000000000
   0.43515167292000   0.00000000000000   0.00000000000000   0.00000000000000
   0.34883240595000   0.00000000000000   0.00000000000000   0.00000000000000
   0.00000000000000   1.00000000000000   0.00000000000000   0.00000000000000
   0.00000000000000   0.00000000000000   1.00000000000000   0.00000000000000
   0.00000000000000   0.00000000000000   0.00000000000000   1.00000000000000
* d-type functions
    1    1
        0.5500000000
   1.00000000000000

/Cl.def-TZVP.Schafer.14s9p1d.5s4p1d.
A. Schafer, C. Huber, R. Ahlrichs. J. Chem. Phys. 100 (1994) 5829-5835. doi:10.1063/1.467146
CHLORINE (14s,9p,1d) -> [5s,4p,1d]
    17.0   2
* s-type functions
   14    5
    69507.9909450000
    10426.1568800000
     2373.2334061000
      671.5642007100
      218.4199979000
       77.5722497140
       28.8888152770
      127.1052718500
       39.3395829610
        7.6740679989
        3.8745627630
        1.8385832573
     5022.9057542e-4
        0.1796272342
   0.00054314897497   0.00000000000000   0.00000000000000   0.00000000000000   0.00000000000000
   0.00419904639610   0.00000000000000   0.00000000000000   0.00000000000000   0.00000000000000
   0.02159214167900   0.00000000000000   0.00000000000000   0.00000000000000   0.00000000000000
   0.08459885009400   0.00000000000000   0.00000000000000   0.00000000000000   0.00000000000000
   0.24757249724000   0.00000000000000   0.00000000000000   0.00000000000000   0.00000000000000
   0.47016930228000   0.00000000000000   0.00000000000000   0.00000000000000   0.00000000000000
   0.37436370716000   0.00000000000000   0.00000000000000   0.00000000000000   0.00000000000000
   0.00000000000000   0.02518216660300   0.00000000000000   0.00000000000000   0.00000000000000
   0.00000000000000   0.10786112456000   0.00000000000000   0.00000000000000   0.00000000000000
   0.00000000000000  -0.27408821574000   0.00000000000000   0.00000000000000   0.00000000000000
   0.00000000000000   0.00000000000000   1.32138750140000   0.00000000000000   0.00000000000000
   0.00000000000000   0.00000000000000   0.68636955368000   0.00000000000000   0.00000000000000
   0.00000000000000   0.00000000000000   0.00000000000000   1.00000000000000   0.00000000000000
   0.00000000000000   0.00000000000000   0.00000000000000   0.00000000000000   1.00000000000000
* p-type functions
    9    4
      666.5042328400
      157.6424169000
       50.2625209780
       18.5360781050
        7.2940532777
        2.9433248995
        1.0404970818
        0.3845641508
     1306.9642732e-4
   0.00236326638360   0.00000000000000   0.00000000000000   0.00000000000000
   0.01887930037400   0.00000000000000   0.00000000000000   0.00000000000000
   0.08720634127300   0.00000000000000   0.00000000000000   0.00000000000000
   0.25285612970000   0.00000000000000   0.00000000000000   0.00000000000000
   0.43507154820000   0.00000000000000   0.00000000000000   0.00000000000000
   0.35026513165000   0.00000000000000   0.00000000000000   0.00000000000000
   0.00000000000000   1.00000000000000   0.00000000000000   0.00000000000000
   0.00000000000000   0.00000000000000   1.00000000000000   0.00000000000000
   0.00000000000000   0.00000000000000   0.00000000000000   1.00000000000000
* d-type functions
    1    1
        0.6500000000
   1.00000000000000

/Ar.def-TZVP.Schafer.14s9p1d.5s4p1d.
A. Schafer, C. Huber, R. Ahlrichs. J. Chem. Phys. 100 (1994) 5829-5835. doi:10.1063/1.467146
ARGON (14s,9p,1d) -> [5s,4p,1d]
    18.0   2
* s-type functions
   14    5
    79111.4229980000
    11864.7460090000
     2700.1642973000
      763.9594348500
      248.4515056100
       88.2835810000
       32.9486070690
      142.5535800000
       44.1636880090
        8.9524995000
        4.5546920941
        2.1444079001
     6070.8777004e-4
     2165.1431999e-4
   0.00051029325002   0.00000000000000   0.00000000000000   0.00000000000000   0.00000000000000
   0.00394630369810   0.00000000000000   0.00000000000000   0.00000000000000   0.00000000000000
   0.02030707391000   0.00000000000000   0.00000000000000   0.00000000000000   0.00000000000000
   0.07969182521400   0.00000000000000   0.00000000000000   0.00000000000000   0.00000000000000
   0.23420623836000   0.00000000000000   0.00000000000000   0.00000000000000   0.00000000000000
   0.44833849481000   0.00000000000000   0.00000000000000   0.00000000000000   0.00000000000000
   0.36408167400000   0.00000000000000   0.00000000000000   0.00000000000000   0.00000000000000
   0.00000000000000   0.02638740700100   0.00000000000000   0.00000000000000   0.00000000000000
   0.00000000000000   0.11226433999000   0.00000000000000   0.00000000000000   0.00000000000000
   0.00000000000000  -0.26178922001000   0.00000000000000   0.00000000000000   0.00000000000000
   0.00000000000000   0.00000000000000   1.30024849980000   0.00000000000000   0.00000000000000
   0.00000000000000   0.00000000000000   0.67197237009000   0.00000000000000   0.00000000000000
   0.00000000000000   0.00000000000000   0.00000000000000   1.00000000000000   0.00000000000000
   0.00000000000000   0.00000000000000   0.00000000000000   0.00000000000000   1.00000000000000
* p-type functions
    9    4
      776.7754199800
      183.8010701800
       58.6940031750
       21.7015916950
        8.5821489635
        3.4922679161
        1.2637426998
     4660.7870005e-4
        0.1576600300
   0.00220280050030   0.00000000000000   0.00000000000000   0.00000000000000
   0.01769418000800   0.00000000000000   0.00000000000000   0.00000000000000
   0.08243129371700   0.00000000000000   0.00000000000000   0.00000000000000
   0.24207278863000   0.00000000000000   0.00000000000000   0.00000000000000
   0.42263558251000   0.00000000000000   0.00000000000000   0.00000000000000
   0.34151806086000   0.00000000000000   0.00000000000000   0.00000000000000
   0.00000000000000   1.00000000000000   0.00000000000000   0.00000000000000
   0.00000000000000   0.00000000000000   1.00000000000000   0.00000000000000
   0.00000000000000   0.00000000000000   0.00000000000000   1.00000000000000
* d-type functions
    1    1
        0.6960000000
   1.00000000000000

/K.def-TZVP.Schafer.17s11p.6s4p.
A. Schafer, C. Huber, R. Ahlrichs. J. Chem. Phys. 100 (1994) 5829-5835. doi:10.1063/1.467146
POTASSIUM (17s,11p) -> [6s,4p]
    19.0   1
* s-type functions
   17    6
   153976.1832500000
    23082.4976720000
     5253.2344745000
     1486.9550133000
      484.0633372600
      173.5665398000
       67.1163814640
       26.3395020540
      172.8769356700
       53.0586490630
        7.9212753964
        3.2108880472
        4.5662070895
     7020.9907282e-4
     2825.8942635e-4
     3580.5824617e-5
     1581.9213245e-5
   0.00023662636107   0.00000000000000   0.00000000000000   0.00000000000000   0.00000000000000   0.00000000000000
   0.00183429291370   0.00000000000000   0.00000000000000   0.00000000000000   0.00000000000000   0.00000000000000
   0.00953105277690   0.00000000000000   0.00000000000000   0.00000000000000   0.00000000000000   0.00000000000000
   0.03863840698000   0.00000000000000   0.00000000000000   0.00000000000000   0.00000000000000   0.00000000000000
   0.12480768502000   0.00000000000000   0.00000000000000   0.00000000000000   0.00000000000000   0.00000000000000
   0.29278861009000   0.00000000000000   0.00000000000000   0.00000000000000   0.00000000000000   0.00000000000000
   0.40633425860000   0.00000000000000   0.00000000000000   0.00000000000000   0.00000000000000   0.00000000000000
   0.20077215860000   0.00000000000000   0.00000000000000   0.00000000000000   0.00000000000000   0.00000000000000
   0.00000000000000  -0.02420096093600   0.00000000000000   0.00000000000000   0.00000000000000   0.00000000000000
   0.00000000000000  -0.11553095040000   0.00000000000000   0.00000000000000   0.00000000000000   0.00000000000000
   0.00000000000000   0.57455545175000   0.00000000000000   0.00000000000000   0.00000000000000   0.00000000000000
   0.00000000000000   0.57023185107000   0.00000000000000   0.00000000000000   0.00000000000000   0.00000000000000
   0.00000000000000   0.00000000000000  -0.22615763466000   0.00000000000000   0.00000000000000   0.00000000000000
   0.00000000000000   0.00000000000000   0.75528392045000   0.00000000000000   0.00000000000000   0.00000000000000
   0.00000000000000   0.00000000000000   0.00000000000000   1.00000000000000   0.00000000000000   0.00000000000000
   0.00000000000000   0.00000000000000   0.00000000000000   0.00000000000000   1.00000000000000   0.00000000000000
   0.00000000000000   0.00000000000000   0.00000000000000   0.00000000000000   0.00000000000000   1.00000000000000
* p-type functions
   11    4
      728.1844987300
      172.1326506100
       54.8298470750
       20.1662664940
        7.8610728806
        3.1105213132
       11.7573374920
        1.5139617411
     5832.8591795e-4
     2157.0478076e-4
        0.0417370000
   0.00261506897920   0.00000000000000   0.00000000000000   0.00000000000000
   0.02067363083500   0.00000000000000   0.00000000000000   0.00000000000000
   0.09320560387000   0.00000000000000   0.00000000000000   0.00000000000000
   0.25436518210000   0.00000000000000   0.00000000000000   0.00000000000000
   0.39131132810000   0.00000000000000   0.00000000000000   0.00000000000000
   0.22481345943000   0.00000000000000   0.00000000000000   0.00000000000000
   0.00000000000000  -0.02577728921700   0.00000000000000   0.00000000000000
   0.00000000000000   0.57359428604000   0.00000000000000   0.00000000000000
   0.00000000000000   1.07983200020000   0.00000000000000   0.00000000000000
   0.00000000000000   0.00000000000000   1.00000000000000   0.00000000000000
   0.00000000000000   0.00000000000000   0.00000000000000   1.00000000000000

/Ca.def-TZVP.Schafer.17s11p4d.6s4p2d.
A. Schafer, C. Huber, R. Ahlrichs. J. Chem. Phys. 100 (1994) 5829-5835. doi:10.1063/1.467146
CALCIUM (17s,11p,4d) -> [6s,4p,2d]
    20.0   2
* s-type functions
   17    6
   172517.3268500000
    25861.5192750000
     5885.6618668000
     1665.9730031000
      542.3671814800
      194.5780349200
       75.3035976360
       29.5740625890
      191.2007466000
       58.8402998830
        8.9642540845
        3.6856960541
        5.2464289726
     8486.2621528e-4
     3674.3300538e-4
     6682.1582613e-5
     2675.9730445e-5
   0.00023317502546   0.00000000000000   0.00000000000000   0.00000000000000   0.00000000000000   0.00000000000000
   0.00180765219800   0.00000000000000   0.00000000000000   0.00000000000000   0.00000000000000   0.00000000000000
   0.00939438442550   0.00000000000000   0.00000000000000   0.00000000000000   0.00000000000000   0.00000000000000
   0.03810840900900   0.00000000000000   0.00000000000000   0.00000000000000   0.00000000000000   0.00000000000000
   0.12331203853000   0.00000000000000   0.00000000000000   0.00000000000000   0.00000000000000   0.00000000000000
   0.29004470954000   0.00000000000000   0.00000000000000   0.00000000000000   0.00000000000000   0.00000000000000
   0.40587151157000   0.00000000000000   0.00000000000000   0.00000000000000   0.00000000000000   0.00000000000000
   0.20398410743000   0.00000000000000   0.00000000000000   0.00000000000000   0.00000000000000   0.00000000000000
   0.00000000000000  -0.02441975975900   0.00000000000000   0.00000000000000   0.00000000000000   0.00000000000000
   0.00000000000000  -0.11547027448000   0.00000000000000   0.00000000000000   0.00000000000000   0.00000000000000
   0.00000000000000   0.56356636717000   0.00000000000000   0.00000000000000   0.00000000000000   0.00000000000000
   0.00000000000000   0.56709682704000   0.00000000000000   0.00000000000000   0.00000000000000   0.00000000000000
   0.00000000000000   0.00000000000000  -0.22825334325000   0.00000000000000   0.00000000000000   0.00000000000000
   0.00000000000000   0.00000000000000   0.72625219172000   0.00000000000000   0.00000000000000   0.00000000000000
   0.00000000000000   0.00000000000000   0.00000000000000   1.00000000000000   0.00000000000000   0.00000000000000
   0.00000000000000   0.00000000000000   0.00000000000000   0.00000000000000   1.00000000000000   0.00000000000000
   0.00000000000000   0.00000000000000   0.00000000000000   0.00000000000000   0.00000000000000   1.00000000000000
* p-type functions
   11    4
      836.9726205800
      197.9304014200
       63.1355580540
       23.2826871700
        9.1176444932
        3.6336120139
       13.4941631200
        1.8139259790
     7198.1826006e-4
     2762.9576992e-4
        0.0749790000
   0.00252583460920   0.00000000000000   0.00000000000000   0.00000000000000
   0.02007650668600   0.00000000000000   0.00000000000000   0.00000000000000
   0.09130298736600   0.00000000000000   0.00000000000000   0.00000000000000
   0.25247029915000   0.00000000000000   0.00000000000000   0.00000000000000
   0.39426326344000   0.00000000000000   0.00000000000000   0.00000000000000
   0.23011559492000   0.00000000000000   0.00000000000000   0.00000000000000
   0.00000000000000  -0.02649502195100   0.00000000000000   0.00000000000000
   0.00000000000000   0.55088108210000   0.00000000000000   0.00000000000000
   0.00000000000000   1.02806166200000   0.00000000000000   0.00000000000000
   0.00000000000000   0.00000000000000   1.00000000000000   0.00000000000000
   0.00000000000000   0.00000000000000   0.00000000000000   1.00000000000000
* d-type functions
    4    2
        5.4979093879
        1.3177128032
     3218.8682649e-4
     7052.8614919e-5
   0.07377001143300   0.00000000000000
   0.26052853169000   0.00000000000000
   0.45233836380000   0.00000000000000
   0.00000000000000   1.00000000000000

/Sc.def-TZVP.Schafer.17s11p6d.6s4p3d.
A. Schafer, C. Huber, R. Ahlrichs. J. Chem. Phys. 100 (1994) 5829-5835. doi:10.1063/1.467146
SCANDIUM (17s,11p,6d) -> [6s,4p,3d]
    21.0   2
* s-type functions
   17    6
   191612.9187400000
    28723.8503630000
     6537.0116490000
     1850.3097171000
      602.3885515600
      216.1732476600
       83.7125178800
       32.9087071890
      211.3439323400
       65.1289201390
       10.0343115350
        4.1596884597
        6.0009041613
        0.9825578415
     4248.3192773e-4
     7718.5462096e-5
     3014.7219702e-5
   0.00023076475942   0.00000000000000   0.00000000000000   0.00000000000000   0.00000000000000   0.00000000000000
   0.00178903299460   0.00000000000000   0.00000000000000   0.00000000000000   0.00000000000000   0.00000000000000
   0.00929904011400   0.00000000000000   0.00000000000000   0.00000000000000   0.00000000000000   0.00000000000000
   0.03773943801100   0.00000000000000   0.00000000000000   0.00000000000000   0.00000000000000   0.00000000000000
   0.12227148359000   0.00000000000000   0.00000000000000   0.00000000000000   0.00000000000000   0.00000000000000
   0.28814821470000   0.00000000000000   0.00000000000000   0.00000000000000   0.00000000000000   0.00000000000000
   0.40517543099000   0.00000000000000   0.00000000000000   0.00000000000000   0.00000000000000   0.00000000000000
   0.20566019623000   0.00000000000000   0.00000000000000   0.00000000000000   0.00000000000000   0.00000000000000
   0.00000000000000  -0.02452799146200   0.00000000000000   0.00000000000000   0.00000000000000   0.00000000000000
   0.00000000000000  -0.11570158142000   0.00000000000000   0.00000000000000   0.00000000000000   0.00000000000000
   0.00000000000000   0.55995283317000   0.00000000000000   0.00000000000000   0.00000000000000   0.00000000000000
   0.00000000000000   0.56087765073000   0.00000000000000   0.00000000000000   0.00000000000000   0.00000000000000
   0.00000000000000   0.00000000000000  -0.22840494325000   0.00000000000000   0.00000000000000   0.00000000000000
   0.00000000000000   0.00000000000000   0.71948970378000   0.00000000000000   0.00000000000000   0.00000000000000
   0.00000000000000   0.00000000000000   0.00000000000000   1.00000000000000   0.00000000000000   0.00000000000000
   0.00000000000000   0.00000000000000   0.00000000000000   0.00000000000000   1.00000000000000   0.00000000000000
   0.00000000000000   0.00000000000000   0.00000000000000   0.00000000000000   0.00000000000000   1.00000000000000
* p-type functions
   11    4
      947.3412282300
      224.0969973200
       71.5603348820
       26.4448244900
       10.3937982850
        4.1606304559
       15.5657371350
        2.1121544865
     8418.4709021e-4
     3229.7542652e-4
        0.0897480000
   0.00247372087440   0.00000000000000   0.00000000000000   0.00000000000000
   0.01974296706000   0.00000000000000   0.00000000000000   0.00000000000000
   0.09035714754900   0.00000000000000   0.00000000000000   0.00000000000000
   0.25201602503000   0.00000000000000   0.00000000000000   0.00000000000000
   0.39675535929000   0.00000000000000   0.00000000000000   0.00000000000000
   0.23208624517000   0.00000000000000   0.00000000000000   0.00000000000000
   0.00000000000000  -0.02712942397400   0.00000000000000   0.00000000000000
   0.00000000000000   0.55109256629000   0.00000000000000   0.00000000000000
   0.00000000000000   1.00906358060000   0.00000000000000   0.00000000000000
   0.00000000000000   0.00000000000000   1.00000000000000   0.00000000000000
   0.00000000000000   0.00000000000000   0.00000000000000   1.00000000000000
* d-type functions
    6    3
       30.9893909930
        8.6905465069
        2.9520256337
        1.0761910745
     3833.8915095e-4
     1253.4686113e-4
   0.01190283743100   0.00000000000000   0.00000000000000
   0.06765585685000   0.00000000000000   0.00000000000000
   0.21332539722000   0.00000000000000   0.00000000000000
   0.38391075578000   0.00000000000000   0.00000000000000
   0.00000000000000   0.43354716259000   0.00000000000000
   0.00000000000000   0.00000000000000   0.24509263822000

/Ti.def-TZVP.Schafer.17s11p6d.6s4p3d.
A. Schafer, C. Huber, R. Ahlrichs. J. Chem. Phys. 100 (1994) 5829-5835. doi:10.1063/1.467146
TITANIUM (17s,11p,6d) -> [6s,4p,3d]
    22.0   2
* s-type functions
   17    6
   211575.6902500000
    31714.9450580000
     7217.5476543000
     2042.9394247000
      665.1289620800
      238.7494226400
       92.5086910010
       36.4039192090
      232.7262460700
       71.7912097110
       11.1585346150
        4.6548135416
        6.8034629174
        1.1201076403
     4808.0118839e-4
     8515.7274977e-5
     3265.7477046e-5
   0.00023318151011   0.00000000000000   0.00000000000000   0.00000000000000   0.00000000000000   0.00000000000000
   0.00180796908510   0.00000000000000   0.00000000000000   0.00000000000000   0.00000000000000   0.00000000000000
   0.00939843113520   0.00000000000000   0.00000000000000   0.00000000000000   0.00000000000000   0.00000000000000
   0.03815685361800   0.00000000000000   0.00000000000000   0.00000000000000   0.00000000000000   0.00000000000000
   0.12374757197000   0.00000000000000   0.00000000000000   0.00000000000000   0.00000000000000   0.00000000000000
   0.29208551143000   0.00000000000000   0.00000000000000   0.00000000000000   0.00000000000000   0.00000000000000
   0.41226800855000   0.00000000000000   0.00000000000000   0.00000000000000   0.00000000000000   0.00000000000000
   0.21090534061000   0.00000000000000   0.00000000000000   0.00000000000000   0.00000000000000   0.00000000000000
   0.00000000000000  -0.02492014073800   0.00000000000000   0.00000000000000   0.00000000000000   0.00000000000000
   0.00000000000000  -0.11746490087000   0.00000000000000   0.00000000000000   0.00000000000000   0.00000000000000
   0.00000000000000   0.56503342318000   0.00000000000000   0.00000000000000   0.00000000000000   0.00000000000000
   0.00000000000000   0.56211101812000   0.00000000000000   0.00000000000000   0.00000000000000   0.00000000000000
   0.00000000000000   0.00000000000000  -0.23011425503000   0.00000000000000   0.00000000000000   0.00000000000000
   0.00000000000000   0.00000000000000   0.72103186735000   0.00000000000000   0.00000000000000   0.00000000000000
   0.00000000000000   0.00000000000000   0.00000000000000   1.00000000000000   0.00000000000000   0.00000000000000
   0.00000000000000   0.00000000000000   0.00000000000000   0.00000000000000   1.00000000000000   0.00000000000000
   0.00000000000000   0.00000000000000   0.00000000000000   0.00000000000000   0.00000000000000   1.00000000000000
* p-type functions
   11    4
     1063.1474732000
      251.5650706100
       80.4085548540
       29.7681932690
       11.7368305560
        4.7142375230
       17.7968037040
        2.4272698680
     9682.3445537e-4
     3705.6694165e-4
        0.1015610000
   0.00246908393200   0.00000000000000   0.00000000000000   0.00000000000000
   0.01977334552300   0.00000000000000   0.00000000000000   0.00000000000000
   0.09098797667200   0.00000000000000   0.00000000000000   0.00000000000000
   0.25559900413000   0.00000000000000   0.00000000000000   0.00000000000000
   0.40489386764000   0.00000000000000   0.00000000000000   0.00000000000000
   0.23693402558000   0.00000000000000   0.00000000000000   0.00000000000000
   0.00000000000000  -0.02787863961500   0.00000000000000   0.00000000000000
   0.00000000000000   0.55672914668000   0.00000000000000   0.00000000000000
   0.00000000000000   1.00554473500000   0.00000000000000   0.00000000000000
   0.00000000000000   0.00000000000000   1.00000000000000   0.00000000000000
   0.00000000000000   0.00000000000000   0.00000000000000   1.00000000000000
* d-type functions
    6    3
       37.7133847230
       10.6929311840
        3.6728446990
        1.3588590303
     4921.3295253e-4
     1633.0520653e-4
   0.01151383509200   0.00000000000000   0.00000000000000
   0.06724634399600   0.00000000000000   0.00000000000000
   0.21484207775000   0.00000000000000   0.00000000000000
   0.38890892779000   0.00000000000000   0.00000000000000
   0.00000000000000   0.43040835243000   0.00000000000000
   0.00000000000000   0.00000000000000   0.23253305465000

/V.def-TZVP.Schafer.17s11p6d.6s4p3d.
A. Schafer, C. Huber, R. Ahlrichs. J. Chem. Phys. 100 (1994) 5829-5835. doi:10.1063/1.467146
VANADIUM (17s,11p,6d) -> [6s,4p,3d]
    23.0   2
* s-type functions
   17    6
   232340.6505800000
    34828.8411700000
     7926.5448691000
     2243.7733046000
      730.5932294400
      262.3221963100
      101.7040380500
       40.0647846170
      255.2401496800
       78.8046469610
       12.3405989460
        5.1742019219
        7.6513894469
        1.2639759898
     5386.1761721e-4
     9271.9296124e-5
     3499.8055176e-5
   0.00023072410092   0.00000000000000   0.00000000000000   0.00000000000000   0.00000000000000   0.00000000000000
   0.00178881789620   0.00000000000000   0.00000000000000   0.00000000000000   0.00000000000000   0.00000000000000
   0.00929924901310   0.00000000000000   0.00000000000000   0.00000000000000   0.00000000000000   0.00000000000000
   0.03776146334700   0.00000000000000   0.00000000000000   0.00000000000000   0.00000000000000   0.00000000000000
   0.12255909662000   0.00000000000000   0.00000000000000   0.00000000000000   0.00000000000000   0.00000000000000
   0.28963508811000   0.00000000000000   0.00000000000000   0.00000000000000   0.00000000000000   0.00000000000000
   0.41004702955000   0.00000000000000   0.00000000000000   0.00000000000000   0.00000000000000   0.00000000000000
   0.21113610858000   0.00000000000000   0.00000000000000   0.00000000000000   0.00000000000000   0.00000000000000
   0.00000000000000  -0.02445811633800   0.00000000000000   0.00000000000000   0.00000000000000   0.00000000000000
   0.00000000000000  -0.11527205366000   0.00000000000000   0.00000000000000   0.00000000000000   0.00000000000000
   0.00000000000000   0.55174749453000   0.00000000000000   0.00000000000000   0.00000000000000   0.00000000000000
   0.00000000000000   0.54504528489000   0.00000000000000   0.00000000000000   0.00000000000000   0.00000000000000
   0.00000000000000   0.00000000000000  -0.22967638286000   0.00000000000000   0.00000000000000   0.00000000000000
   0.00000000000000   0.00000000000000   0.71683769077000   0.00000000000000   0.00000000000000   0.00000000000000
   0.00000000000000   0.00000000000000   0.00000000000000   1.00000000000000   0.00000000000000   0.00000000000000
   0.00000000000000   0.00000000000000   0.00000000000000   0.00000000000000   1.00000000000000   0.00000000000000
   0.00000000000000   0.00000000000000   0.00000000000000   0.00000000000000   0.00000000000000   1.00000000000000
* p-type functions
   11    4
     1184.2369151000
      280.2307519200
       89.6436271370
       33.2424112530
       13.1445144520
        5.2948534140
       20.1755868510
        2.7605865197
        1.1008900902
     4201.3310739e-4
        0.1112480000
   0.00244498267290   0.00000000000000   0.00000000000000   0.00000000000000
   0.01964345446600   0.00000000000000   0.00000000000000   0.00000000000000
   0.09079694919000   0.00000000000000   0.00000000000000   0.00000000000000
   0.25650768222000   0.00000000000000   0.00000000000000   0.00000000000000
   0.40815393750000   0.00000000000000   0.00000000000000   0.00000000000000
   0.23860378268000   0.00000000000000   0.00000000000000   0.00000000000000
   0.00000000000000  -0.02824148902300   0.00000000000000   0.00000000000000
   0.00000000000000   0.55574635619000   0.00000000000000   0.00000000000000
   0.00000000000000   0.99319919270000   0.00000000000000   0.00000000000000
   0.00000000000000   0.00000000000000   1.00000000000000   0.00000000000000
   0.00000000000000   0.00000000000000   0.00000000000000   1.00000000000000
* d-type functions
    6    3
       43.8611348640
       12.5160218910
        4.3313854957
        1.6138855773
     5874.9573961e-4
     1951.5723011e-4
   0.01148717423800   0.00000000000000   0.00000000000000
   0.06824715397700   0.00000000000000   0.00000000000000
   0.21837784195000   0.00000000000000   0.00000000000000
   0.39245212296000   0.00000000000000   0.00000000000000
   0.00000000000000   0.42634466786000   0.00000000000000
   0.00000000000000   0.00000000000000   0.22646562601000

/Cr.def-TZVP.Schafer.17s11p6d.6s4p3d.
A. Schafer, C. Huber, R. Ahlrichs. J. Chem. Phys. 100 (1994) 5829-5835. doi:10.1063/1.467146
CHROMIUM (17s,11p,6d) -> [6s,4p,3d]
    24.0   2
* s-type functions
   17    6
   254477.8070400000
    38131.7970540000
     8675.2930607000
     2455.0099848000
      799.1621778700
      286.9002148900
      111.2541323200
       43.8641526360
      279.3266917300
       86.2747323760
       13.5557561130
        5.6978112751
        8.5636582615
        1.3988296768
     5728.8171116e-4
     9009.6171317e-5
     3412.5885135e-5
   0.00023386945693   0.00000000000000   0.00000000000000   0.00000000000000   0.00000000000000   0.00000000000000
   0.00181426018000   0.00000000000000   0.00000000000000   0.00000000000000   0.00000000000000   0.00000000000000
   0.00943639257210   0.00000000000000   0.00000000000000   0.00000000000000   0.00000000000000   0.00000000000000
   0.03834363936700   0.00000000000000   0.00000000000000   0.00000000000000   0.00000000000000   0.00000000000000
   0.12459194837000   0.00000000000000   0.00000000000000   0.00000000000000   0.00000000000000   0.00000000000000
   0.29489696029000   0.00000000000000   0.00000000000000   0.00000000000000   0.00000000000000   0.00000000000000
   0.41846149607000   0.00000000000000   0.00000000000000   0.00000000000000   0.00000000000000   0.00000000000000
   0.21633763420000   0.00000000000000   0.00000000000000   0.00000000000000   0.00000000000000   0.00000000000000
   0.00000000000000  -0.02345090811100   0.00000000000000   0.00000000000000   0.00000000000000   0.00000000000000
   0.00000000000000  -0.11080370027000   0.00000000000000   0.00000000000000   0.00000000000000   0.00000000000000
   0.00000000000000   0.53028965842000   0.00000000000000   0.00000000000000   0.00000000000000   0.00000000000000
   0.00000000000000   0.51603516947000   0.00000000000000   0.00000000000000   0.00000000000000   0.00000000000000
   0.00000000000000   0.00000000000000  -0.38109545675000   0.00000000000000   0.00000000000000   0.00000000000000
   0.00000000000000   0.00000000000000   1.19915914360000   0.00000000000000   0.00000000000000   0.00000000000000
   0.00000000000000   0.00000000000000   0.00000000000000   1.00000000000000   0.00000000000000   0.00000000000000
   0.00000000000000   0.00000000000000   0.00000000000000   0.00000000000000   1.00000000000000   0.00000000000000
   0.00000000000000   0.00000000000000   0.00000000000000   0.00000000000000   0.00000000000000   1.00000000000000
* p-type functions
   11    4
     1306.4398864000
      309.2531144100
       98.9962739630
       36.7569164510
       14.5666570770
        5.8739937432
       22.8909996950
        3.0855001822
        1.2132329118
     4493.1680699e-4
        0.1206750000
   0.00242773261850   0.00000000000000   0.00000000000000   0.00000000000000
   0.01954404101700   0.00000000000000   0.00000000000000   0.00000000000000
   0.09065179455300   0.00000000000000   0.00000000000000   0.00000000000000
   0.25699279154000   0.00000000000000   0.00000000000000   0.00000000000000
   0.40935504891000   0.00000000000000   0.00000000000000   0.00000000000000
   0.23729388849000   0.00000000000000   0.00000000000000   0.00000000000000
   0.00000000000000  -0.02816602661300   0.00000000000000   0.00000000000000
   0.00000000000000   0.56034120148000   0.00000000000000   0.00000000000000
   0.00000000000000   0.98119019650000   0.00000000000000   0.00000000000000
   0.00000000000000   0.00000000000000   1.00000000000000   0.00000000000000
   0.00000000000000   0.00000000000000   0.00000000000000   1.00000000000000
* d-type functions
    6    3
       43.7200744760
       12.3912426520
        4.2639442006
        1.5525221790
     5376.1929485e-4
     1649.3173074e-4
   0.01362296402600   0.00000000000000   0.00000000000000
   0.07893518013300   0.00000000000000   0.00000000000000
   0.23833840000000   0.00000000000000   0.00000000000000
   0.39526851122000   0.00000000000000   0.00000000000000
   0.00000000000000   0.41061717056000   0.00000000000000
   0.00000000000000   0.00000000000000   0.24440410795000

/Mn.def-TZVP.Schafer.17s11p6d.6s4p3d.
A. Schafer, C. Huber, R. Ahlrichs. J. Chem. Phys. 100 (1994) 5829-5835. doi:10.1063/1.467146
MANGANESE (17s,11p,6d) -> [6s,4p,3d]
    25.0   2
* s-type functions
   17    6
   277185.0015300000
    41550.7698900000
     9455.9700152000
     2676.5206482000
      871.4668753000
      312.9830642000
      121.4445405100
       47.9225988290
      303.6672316300
       93.8814031870
       14.8794212140
        6.2865200745
        9.4858591337
        1.5698706158
     6590.3213608e-4
     1068.6292371e-4
     3926.7435433e-5
   0.00022838385133   0.00000000000000   0.00000000000000   0.00000000000000   0.00000000000000   0.00000000000000
   0.00177076503750   0.00000000000000   0.00000000000000   0.00000000000000   0.00000000000000   0.00000000000000
   0.00920772099940   0.00000000000000   0.00000000000000   0.00000000000000   0.00000000000000   0.00000000000000
   0.03741597182500   0.00000000000000   0.00000000000000   0.00000000000000   0.00000000000000   0.00000000000000
   0.12164861426000   0.00000000000000   0.00000000000000   0.00000000000000   0.00000000000000   0.00000000000000
   0.28824392499000   0.00000000000000   0.00000000000000   0.00000000000000   0.00000000000000   0.00000000000000
   0.41041600847000   0.00000000000000   0.00000000000000   0.00000000000000   0.00000000000000   0.00000000000000
   0.21372375145000   0.00000000000000   0.00000000000000   0.00000000000000   0.00000000000000   0.00000000000000
   0.00000000000000  -0.02458992614000   0.00000000000000   0.00000000000000   0.00000000000000   0.00000000000000
   0.00000000000000  -0.11602608038000   0.00000000000000   0.00000000000000   0.00000000000000   0.00000000000000
   0.00000000000000   0.55112059677000   0.00000000000000   0.00000000000000   0.00000000000000   0.00000000000000
   0.00000000000000   0.53707560756000   0.00000000000000   0.00000000000000   0.00000000000000   0.00000000000000
   0.00000000000000   0.00000000000000  -0.22889262695000   0.00000000000000   0.00000000000000   0.00000000000000
   0.00000000000000   0.00000000000000   0.71196169587000   0.00000000000000   0.00000000000000   0.00000000000000
   0.00000000000000   0.00000000000000   0.00000000000000   1.00000000000000   0.00000000000000   0.00000000000000
   0.00000000000000   0.00000000000000   0.00000000000000   0.00000000000000   1.00000000000000   0.00000000000000
   0.00000000000000   0.00000000000000   0.00000000000000   0.00000000000000   0.00000000000000   1.00000000000000
* p-type functions
   11    4
     1444.7978182000
      342.0655119700
      109.5840089100
       40.7479881730
       16.1886265660
        6.5484505964
       25.3570864370
        3.4830168782
        1.3858800906
     5255.5094893e-4
        0.1276500000
   0.00239941364550   0.00000000000000   0.00000000000000   0.00000000000000
   0.01936928686400   0.00000000000000   0.00000000000000   0.00000000000000
   0.09023610898800   0.00000000000000   0.00000000000000   0.00000000000000
   0.25745467851000   0.00000000000000   0.00000000000000   0.00000000000000
   0.41272351958000   0.00000000000000   0.00000000000000   0.00000000000000
   0.24087700007000   0.00000000000000   0.00000000000000   0.00000000000000
   0.00000000000000  -0.02870717405800   0.00000000000000   0.00000000000000
   0.00000000000000   0.55208100712000   0.00000000000000   0.00000000000000
   0.00000000000000   0.97226901379000   0.00000000000000   0.00000000000000
   0.00000000000000   0.00000000000000   1.00000000000000   0.00000000000000
   0.00000000000000   0.00000000000000   0.00000000000000   1.00000000000000
* d-type functions
    6    3
       56.5631891190
       16.2787347110
        5.6964273914
        2.1411147942
     7829.1801938e-4
     2595.2311214e-4
 115.43245294532e-4   0.00000000000000   0.00000000000000
 702.99845987196e-4   0.00000000000000   0.00000000000000
   0.22450770821295   0.00000000000000   0.00000000000000
   0.39703065434226   0.00000000000000   0.00000000000000
   0.00000000000000   0.41941039165375   0.00000000000000
   0.00000000000000   0.00000000000000   0.21887261672743

/Fe.def-TZVP.Schafer.17s11p6d.6s4p3d.
A. Schafer, C. Huber, R. Ahlrichs. J. Chem. Phys. 100 (1994) 5829-5835. doi:10.1063/1.467146
IRON (17s,11p,6d) -> [6s,4p,3d]
    26.0   2
* s-type functions
   17    6
   300784.8463700000
    45088.9705570000
    10262.5163170000
     2905.2897293000
      946.1148713700
      339.8783289400
      131.9442558800
       52.1114940770
      329.4883926700
      101.9233273900
       16.2404627450
        6.8840675801
       10.4706937820
        1.7360039648
     7257.7288979e-4
     1159.5528203e-4
     4196.8227746e-5
   0.00022806273096   0.00000000000000   0.00000000000000   0.00000000000000   0.00000000000000   0.00000000000000
   0.00176817887610   0.00000000000000   0.00000000000000   0.00000000000000   0.00000000000000   0.00000000000000
   0.00919270834900   0.00000000000000   0.00000000000000   0.00000000000000   0.00000000000000   0.00000000000000
   0.03735549580700   0.00000000000000   0.00000000000000   0.00000000000000   0.00000000000000   0.00000000000000
   0.12151108426000   0.00000000000000   0.00000000000000   0.00000000000000   0.00000000000000   0.00000000000000
   0.28818881468000   0.00000000000000   0.00000000000000   0.00000000000000   0.00000000000000   0.00000000000000
   0.41126612677000   0.00000000000000   0.00000000000000   0.00000000000000   0.00000000000000   0.00000000000000
   0.21518583573000   0.00000000000000   0.00000000000000   0.00000000000000   0.00000000000000   0.00000000000000
   0.00000000000000  -0.02474521647700   0.00000000000000   0.00000000000000   0.00000000000000   0.00000000000000
   0.00000000000000  -0.11683089050000   0.00000000000000   0.00000000000000   0.00000000000000   0.00000000000000
   0.00000000000000   0.55293621136000   0.00000000000000   0.00000000000000   0.00000000000000   0.00000000000000
   0.00000000000000   0.53601640182000   0.00000000000000   0.00000000000000   0.00000000000000   0.00000000000000
   0.00000000000000   0.00000000000000  -0.22912708577000   0.00000000000000   0.00000000000000   0.00000000000000
   0.00000000000000   0.00000000000000   0.71159319984000   0.00000000000000   0.00000000000000   0.00000000000000
   0.00000000000000   0.00000000000000   0.00000000000000   1.00000000000000   0.00000000000000   0.00000000000000
   0.00000000000000   0.00000000000000   0.00000000000000   0.00000000000000   1.00000000000000   0.00000000000000
   0.00000000000000   0.00000000000000   0.00000000000000   0.00000000000000   0.00000000000000   1.00000000000000
* p-type functions
   11    4
     1585.3959970000
      375.3800649900
      120.3181650100
       44.7887490310
       17.8292785840
        7.2247153786
       28.1432197560
        3.8743241412
        1.5410752281
        0.5828561525
        0.1349150000
   0.00237939601790   0.00000000000000   0.00000000000000   0.00000000000000
   0.01925315475500   0.00000000000000   0.00000000000000   0.00000000000000
   0.09002183653600   0.00000000000000   0.00000000000000   0.00000000000000
   0.25798172356000   0.00000000000000   0.00000000000000   0.00000000000000
   0.41492649744000   0.00000000000000   0.00000000000000   0.00000000000000
   0.24207474784000   0.00000000000000   0.00000000000000   0.00000000000000
   0.00000000000000  -0.02904175515200   0.00000000000000   0.00000000000000
   0.00000000000000   0.55312260343000   0.00000000000000   0.00000000000000
   0.00000000000000   0.96771136842000   0.00000000000000   0.00000000000000
   0.00000000000000   0.00000000000000   1.00000000000000   0.00000000000000
   0.00000000000000   0.00000000000000   0.00000000000000   1.00000000000000
* d-type functions
    6    3
       61.9966750340
       17.8737325520
        6.2744782934
        2.3552337175
     8543.2239901e-4
     2786.9254413e-4
   0.01197197225500   0.00000000000000   0.00000000000000
   0.07321013541000   0.00000000000000   0.00000000000000
   0.23103094314000   0.00000000000000   0.00000000000000
   0.39910706494000   0.00000000000000   0.00000000000000
   0.00000000000000   0.41391589765000   0.00000000000000
   0.00000000000000   0.00000000000000   0.21909269782000

/Co.def-TZVP.Schafer.17s11p6d.6s4p3d.
A. Schafer, C. Huber, R. Ahlrichs. J. Chem. Phys. 100 (1994) 5829-5835. doi:10.1063/1.467146
COBALT (17s,11p,6d) -> [6s,4p,3d]
    27.0   2
* s-type functions
   17    6
   325817.0155300000
    48839.6364530000
    11114.9373070000
     3146.1603642000
     1024.4378465000
      368.0250881600
      142.9122920500
       56.4826492090
      356.4029831800
      110.3116521500
       17.6596348340
        7.5059030479
       11.5018071760
        1.9081994606
     7939.6696891e-4
     1244.4448829e-4
     4444.4645379e-5
   0.00022568462484   0.00000000000000   0.00000000000000   0.00000000000000   0.00000000000000   0.00000000000000
   0.00174993975330   0.00000000000000   0.00000000000000   0.00000000000000   0.00000000000000   0.00000000000000
   0.00910031340970   0.00000000000000   0.00000000000000   0.00000000000000   0.00000000000000   0.00000000000000
   0.03699625683700   0.00000000000000   0.00000000000000   0.00000000000000   0.00000000000000   0.00000000000000
   0.12044269621000   0.00000000000000   0.00000000000000   0.00000000000000   0.00000000000000   0.00000000000000
   0.28598731649000   0.00000000000000   0.00000000000000   0.00000000000000   0.00000000000000   0.00000000000000
   0.40908312004000   0.00000000000000   0.00000000000000   0.00000000000000   0.00000000000000   0.00000000000000
   0.21500145739000   0.00000000000000   0.00000000000000   0.00000000000000   0.00000000000000   0.00000000000000
   0.00000000000000  -0.02476705967800   0.00000000000000   0.00000000000000   0.00000000000000   0.00000000000000
   0.00000000000000  -0.11702139134000   0.00000000000000   0.00000000000000   0.00000000000000   0.00000000000000
   0.00000000000000   0.55215522200000   0.00000000000000   0.00000000000000   0.00000000000000   0.00000000000000
   0.00000000000000   0.53246877060000   0.00000000000000   0.00000000000000   0.00000000000000   0.00000000000000
   0.00000000000000   0.00000000000000  -0.22942470077000   0.00000000000000   0.00000000000000   0.00000000000000
   0.00000000000000   0.00000000000000   0.71180933514000   0.00000000000000   0.00000000000000   0.00000000000000
   0.00000000000000   0.00000000000000   0.00000000000000   1.00000000000000   0.00000000000000   0.00000000000000
   0.00000000000000   0.00000000000000   0.00000000000000   0.00000000000000   1.00000000000000   0.00000000000000
   0.00000000000000   0.00000000000000   0.00000000000000   0.00000000000000   0.00000000000000   1.00000000000000
* p-type functions
   11    4
     1731.1369144000
      409.9175043800
      131.4564857800
       48.9874397140
       19.5370789920
        7.9287281634
       31.0760175840
        4.2835180697
        1.7022921563
     6420.2908602e-4
        0.1413080000
   0.00239057676850   0.00000000000000   0.00000000000000   0.00000000000000
   0.01938299996700   0.00000000000000   0.00000000000000   0.00000000000000
   0.09090544850900   0.00000000000000   0.00000000000000   0.00000000000000
   0.26146681577000   0.00000000000000   0.00000000000000   0.00000000000000
   0.42157264570000   0.00000000000000   0.00000000000000   0.00000000000000
   0.24571813557000   0.00000000000000   0.00000000000000   0.00000000000000
   0.00000000000000  -0.02943806997300   0.00000000000000   0.00000000000000
   0.00000000000000   0.55615568168000   0.00000000000000   0.00000000000000
   0.00000000000000   0.96772195064000   0.00000000000000   0.00000000000000
   0.00000000000000   0.00000000000000   1.00000000000000   0.00000000000000
   0.00000000000000   0.00000000000000   0.00000000000000   1.00000000000000
* d-type functions
    6    3
       68.1407452390
       19.6852410190
        6.9322128825
        2.6025125694
     9401.6837302e-4
     3038.1457794e-4
   0.01198384536000   0.00000000000000   0.00000000000000
   0.07368854047500   0.00000000000000   0.00000000000000
   0.23085496779000   0.00000000000000   0.00000000000000
   0.39281059225000   0.00000000000000   0.00000000000000
   0.00000000000000   0.40203412228000   0.00000000000000
   0.00000000000000   0.00000000000000   0.21415606743000

/Ni.def-TZVP.Schafer.17s11p6d.6s4p3d.
A. Schafer, C. Huber, R. Ahlrichs. J. Chem. Phys. 100 (1994) 5829-5835. doi:10.1063/1.467146
NICKEL (17s,11p,6d) -> [6s,4p,3d]
    28.0   2
* s-type functions
   17    6
   351535.7293500000
    52695.8092830000
    11992.4682930000
     3394.5776689000
     1105.3594585000
      397.1467776900
      154.2754297400
       61.0187237800
      384.4555973900
      119.0487919900
       19.1370122230
        8.1526718562
       12.5794086420
        2.0870866081
     8643.2568555e-4
     1328.3169217e-4
     4684.5327726e-5
   0.00022529386884   0.00000000000000   0.00000000000000   0.00000000000000   0.00000000000000   0.00000000000000
   0.00174686162230   0.00000000000000   0.00000000000000   0.00000000000000   0.00000000000000   0.00000000000000
   0.00908499921360   0.00000000000000   0.00000000000000   0.00000000000000   0.00000000000000   0.00000000000000
   0.03694074844700   0.00000000000000   0.00000000000000   0.00000000000000   0.00000000000000   0.00000000000000
   0.12032819950000   0.00000000000000   0.00000000000000   0.00000000000000   0.00000000000000   0.00000000000000
   0.28596715057000   0.00000000000000   0.00000000000000   0.00000000000000   0.00000000000000   0.00000000000000
   0.40983020196000   0.00000000000000   0.00000000000000   0.00000000000000   0.00000000000000   0.00000000000000
   0.21620642851000   0.00000000000000   0.00000000000000   0.00000000000000   0.00000000000000   0.00000000000000
   0.00000000000000  -0.02465127926800   0.00000000000000   0.00000000000000   0.00000000000000   0.00000000000000
   0.00000000000000  -0.11658505277000   0.00000000000000   0.00000000000000   0.00000000000000   0.00000000000000
   0.00000000000000   0.54864126676000   0.00000000000000   0.00000000000000   0.00000000000000   0.00000000000000
   0.00000000000000   0.52640051122000   0.00000000000000   0.00000000000000   0.00000000000000   0.00000000000000
   0.00000000000000   0.00000000000000  -0.22797884293000   0.00000000000000   0.00000000000000   0.00000000000000
   0.00000000000000   0.00000000000000   0.70703738215000   0.00000000000000   0.00000000000000   0.00000000000000
   0.00000000000000   0.00000000000000   0.00000000000000   1.00000000000000   0.00000000000000   0.00000000000000
   0.00000000000000   0.00000000000000   0.00000000000000   0.00000000000000   1.00000000000000   0.00000000000000
   0.00000000000000   0.00000000000000   0.00000000000000   0.00000000000000   0.00000000000000   1.00000000000000
* p-type functions
   11    4
     1883.0907486000
      445.9515532000
      143.0843081500
       53.3729207220
       21.3219193570
        8.6643561994
       34.1442552110
        4.7122455921
        1.8709231845
     7037.0016267e-4
        0.1465880000
   0.00237482584430   0.00000000000000   0.00000000000000   0.00000000000000
   0.01928945717200   0.00000000000000   0.00000000000000   0.00000000000000
   0.09071821150700   0.00000000000000   0.00000000000000   0.00000000000000
   0.26181414117000   0.00000000000000   0.00000000000000   0.00000000000000
   0.42309149832000   0.00000000000000   0.00000000000000   0.00000000000000
   0.24641686015000   0.00000000000000   0.00000000000000   0.00000000000000
   0.00000000000000  -0.02967712916300   0.00000000000000   0.00000000000000
   0.00000000000000   0.55616824096000   0.00000000000000   0.00000000000000
   0.00000000000000   0.96357766460000   0.00000000000000   0.00000000000000
   0.00000000000000   0.00000000000000   1.00000000000000   0.00000000000000
   0.00000000000000   0.00000000000000   0.00000000000000   1.00000000000000
* d-type functions
[...]
   0.42658611262000   0.00000000000000   0.00000000000000   0.00000000000000   0.00000000000000
   0.26200527313000   0.00000000000000   0.00000000000000   0.00000000000000   0.00000000000000
   0.00000000000000  -0.02032176767800   0.00000000000000   0.00000000000000   0.00000000000000
   0.00000000000000   0.32013744527000   0.00000000000000   0.00000000000000   0.00000000000000
   0.00000000000000   0.59051014555000   0.00000000000000   0.00000000000000   0.00000000000000
   0.00000000000000   0.00000000000000   1.00000000000000   0.00000000000000   0.00000000000000
   0.00000000000000   0.00000000000000   0.00000000000000   1.00000000000000   0.00000000000000
   0.00000000000000   0.00000000000000   0.00000000000000   0.00000000000000   1.00000000000000
* d-type functions
    7    3
      119.4488758100
       35.0629152930
       12.6369245290
        4.8888672922
        1.8453195392
     6357.1158892e-4
        0.2460000000
   0.01058654452100   0.00000000000000   0.00000000000000
   0.06960128094500   0.00000000000000   0.00000000000000
   0.22807035287000   0.00000000000000   0.00000000000000
   0.40301067220000   0.00000000000000   0.00000000000000
   0.41304847015000   0.00000000000000   0.00000000000000
   0.00000000000000   0.19639209740000   0.00000000000000
   0.00000000000000   0.00000000000000   1.00000000000000

/As.def-TZVP.Schafer.17s13p7d.6s5p3d.
A. Schafer, C. Huber, R. Ahlrichs. J. Chem. Phys. 100 (1994) 5829-5835. doi:10.1063/1.467146
ARSENIC (17s,13p,7d) -> [6s,5p,3d]
    33.0   2
* s-type functions
   17    6
   498032.4215800000
    74656.8687430000
    16990.9600040000
     4809.6200321000
     1566.2887055000
      563.2136049900
      219.1117997800
       86.8660610300
      538.1951247900
      167.1485022400
       27.6055171590
       11.9478585210
       18.5380231330
        3.2018985739
        1.4356522077
        0.3183780520
     1162.2632186e-4
   0.00022740196900   0.00000000000000   0.00000000000000   0.00000000000000   0.00000000000000   0.00000000000000
   0.00176328164130   0.00000000000000   0.00000000000000   0.00000000000000   0.00000000000000   0.00000000000000
   0.00917280403810   0.00000000000000   0.00000000000000   0.00000000000000   0.00000000000000   0.00000000000000
   0.03733782934400   0.00000000000000   0.00000000000000   0.00000000000000   0.00000000000000   0.00000000000000
   0.12199536117000   0.00000000000000   0.00000000000000   0.00000000000000   0.00000000000000   0.00000000000000
   0.29137475324000   0.00000000000000   0.00000000000000   0.00000000000000   0.00000000000000   0.00000000000000
   0.42326351479000   0.00000000000000   0.00000000000000   0.00000000000000   0.00000000000000   0.00000000000000
   0.22921464278000   0.00000000000000   0.00000000000000   0.00000000000000   0.00000000000000   0.00000000000000
   0.00000000000000  -0.02525419729700   0.00000000000000   0.00000000000000   0.00000000000000   0.00000000000000
   0.00000000000000  -0.11915461115000   0.00000000000000   0.00000000000000   0.00000000000000   0.00000000000000
   0.00000000000000   0.54628495980000   0.00000000000000   0.00000000000000   0.00000000000000   0.00000000000000
   0.00000000000000   0.53001520976000   0.00000000000000   0.00000000000000   0.00000000000000   0.00000000000000
   0.00000000000000   0.00000000000000  -0.23479188136000   0.00000000000000   0.00000000000000   0.00000000000000
   0.00000000000000   0.00000000000000   0.69167053428000   0.00000000000000   0.00000000000000   0.00000000000000
   0.00000000000000   0.00000000000000   0.00000000000000   1.00000000000000   0.00000000000000   0.00000000000000
   0.00000000000000   0.00000000000000   0.00000000000000   0.00000000000000   1.00000000000000   0.00000000000000
   0.00000000000000   0.00000000000000   0.00000000000000   0.00000000000000   0.00000000000000   1.00000000000000
* p-type functions
   13    5
     2678.9421546000
      634.6176584000
      203.9396760600
       76.3238903690
       30.6641249430
       12.5050567320
       49.2562295490
        7.7274891466
        3.5410493476
        1.6985585501
     7684.8071044e-4
        0.3005082326
     9819.0639437e-5
   0.00233189552870   0.00000000000000   0.00000000000000   0.00000000000000   0.00000000000000
   0.01904214997700   0.00000000000000   0.00000000000000   0.00000000000000   0.00000000000000
   0.09022974491300   0.00000000000000   0.00000000000000   0.00000000000000   0.00000000000000
   0.26169037693000   0.00000000000000   0.00000000000000   0.00000000000000   0.00000000000000
   0.41857168155000   0.00000000000000   0.00000000000000   0.00000000000000   0.00000000000000
   0.23447830190000   0.00000000000000   0.00000000000000   0.00000000000000   0.00000000000000
   0.00000000000000  -0.02123553987000   0.00000000000000   0.00000000000000   0.00000000000000
   0.00000000000000   0.30470206668000   0.00000000000000   0.00000000000000   0.00000000000000
   0.00000000000000   0.52888373107000   0.00000000000000   0.00000000000000   0.00000000000000
   0.00000000000000   0.37272250955000   0.00000000000000   0.00000000000000   0.00000000000000
   0.00000000000000   0.00000000000000   1.00000000000000   0.00000000000000   0.00000000000000
   0.00000000000000   0.00000000000000   0.00000000000000   1.00000000000000   0.00000000000000
   0.00000000000000   0.00000000000000   0.00000000000000   0.00000000000000   1.00000000000000
* d-type functions
    7    3
      135.3328930500
       39.8602127440
       14.4464283590
        5.6432900356
        2.1668188623
     7651.4970569e-4
        0.2930000000
   0.00992911441060   0.00000000000000   0.00000000000000
   0.06656884349600   0.00000000000000   0.00000000000000
   0.22275768307000   0.00000000000000   0.00000000000000
   0.40309224382000   0.00000000000000   0.00000000000000
   0.41671667946000   0.00000000000000   0.00000000000000
   0.00000000000000   0.18935502288000   0.00000000000000
   0.00000000000000   0.00000000000000   1.00000000000000

/Se.def-TZVP.Schafer.17s13p7d.6s5p3d.
A. Schafer, C. Huber, R. Ahlrichs. J. Chem. Phys. 100 (1994) 5829-5835. doi:10.1063/1.467146
SELENIUM (17s,13p,7d) -> [6s,5p,3d]
    34.0   2
* s-type functions
   17    6
   531071.6669600000
    79603.0441170000
    18115.8442400000
     5127.8923194000
     1669.9130839000
      600.5753452700
      233.7002124700
       92.6724439320
      571.5751367500
      177.6368637500
       29.5177670520
       12.8243997950
       19.8482358410
        3.4744018486
        1.5988910849
     3833.3469387e-4
     1404.9742459e-4
   0.00024108973168   0.00000000000000   0.00000000000000   0.00000000000000   0.00000000000000   0.00000000000000
   0.00186964314410   0.00000000000000   0.00000000000000   0.00000000000000   0.00000000000000   0.00000000000000
   0.00972716165360   0.00000000000000   0.00000000000000   0.00000000000000   0.00000000000000   0.00000000000000
   0.03960479303100   0.00000000000000   0.00000000000000   0.00000000000000   0.00000000000000   0.00000000000000
   0.12948855136000   0.00000000000000   0.00000000000000   0.00000000000000   0.00000000000000   0.00000000000000
   0.30959437289000   0.00000000000000   0.00000000000000   0.00000000000000   0.00000000000000   0.00000000000000
   0.45115769216000   0.00000000000000   0.00000000000000   0.00000000000000   0.00000000000000   0.00000000000000
   0.24579189033000   0.00000000000000   0.00000000000000   0.00000000000000   0.00000000000000   0.00000000000000
   0.00000000000000  -0.02689570788100   0.00000000000000   0.00000000000000   0.00000000000000   0.00000000000000
   0.00000000000000  -0.12670989353000   0.00000000000000   0.00000000000000   0.00000000000000   0.00000000000000
   0.00000000000000   0.57699001719000   0.00000000000000   0.00000000000000   0.00000000000000   0.00000000000000
   0.00000000000000   0.56369075408000   0.00000000000000   0.00000000000000   0.00000000000000   0.00000000000000
   0.00000000000000   0.00000000000000  -0.25132415534000   0.00000000000000   0.00000000000000   0.00000000000000
   0.00000000000000   0.00000000000000   0.72905416980000   0.00000000000000   0.00000000000000   0.00000000000000
   0.00000000000000   0.00000000000000   0.00000000000000   1.00000000000000   0.00000000000000   0.00000000000000
   0.00000000000000   0.00000000000000   0.00000000000000   0.00000000000000   1.00000000000000   0.00000000000000
   0.00000000000000   0.00000000000000   0.00000000000000   0.00000000000000   0.00000000000000   1.00000000000000
* p-type functions
   13    5
     2815.3500566000
      666.9255829800
      214.3421318800
       80.2466879420
       32.2510812880
       13.1064325620
       53.3661085160
        8.1827777195
        3.6239945672
        1.6341591401
     5841.8320228e-4
     2396.6269279e-4
     8878.5134803e-5
   0.00255690268540   0.00000000000000   0.00000000000000   0.00000000000000   0.00000000000000
   0.02087402690100   0.00000000000000   0.00000000000000   0.00000000000000   0.00000000000000
   0.09877209625000   0.00000000000000   0.00000000000000   0.00000000000000   0.00000000000000
   0.28471821221000   0.00000000000000   0.00000000000000   0.00000000000000   0.00000000000000
   0.45003584934000   0.00000000000000   0.00000000000000   0.00000000000000   0.00000000000000
   0.24416091055000   0.00000000000000   0.00000000000000   0.00000000000000   0.00000000000000
   0.00000000000000  -0.02155845627300   0.00000000000000   0.00000000000000   0.00000000000000
   0.00000000000000   0.32662310638000   0.00000000000000   0.00000000000000   0.00000000000000
   0.00000000000000   0.57740499319000   0.00000000000000   0.00000000000000   0.00000000000000
   0.00000000000000   0.34301320826000   0.00000000000000   0.00000000000000   0.00000000000000
   0.00000000000000   0.00000000000000   1.00000000000000   0.00000000000000   0.00000000000000
   0.00000000000000   0.00000000000000   0.00000000000000   1.00000000000000   0.00000000000000
   0.00000000000000   0.00000000000000   0.00000000000000   0.00000000000000   1.00000000000000
* d-type functions
    7    3
      151.8291027900
       44.8399925230
       16.3289995100
        6.4305057612
        2.5048025169
     9027.1148434e-4
        0.3380000000
   0.00939702769880   0.00000000000000   0.00000000000000
   0.06408650399100   0.00000000000000   0.00000000000000
   0.21834238004000   0.00000000000000   0.00000000000000
   0.40314789649000   0.00000000000000   0.00000000000000
   0.41966491490000   0.00000000000000   0.00000000000000
   0.00000000000000   0.18366663432000   0.00000000000000
   0.00000000000000   0.00000000000000   1.00000000000000

/Br.def-TZVP.Schafer.17s13p7d.6s5p3d.
A. Schafer, C. Huber, R. Ahlrichs. J. Chem. Phys. 100 (1994) 5829-5835. doi:10.1063/1.467146
BROMINE (17s,13p,7d) -> [6s,5p,3d]
    35.0   2
* s-type functions
   17    6
   565073.2525600000
    84701.7231790000
    19276.2719000000
     5456.4284576000
     1776.9503500000
      639.1939827600
      248.7882396100
       98.6783054940
      606.0782456800
      188.4559848400
       31.4971445060
       13.7360083200
       21.2032127660
        3.7616420178
        1.7735933962
     4519.7413664e-4
     1661.3377099e-4
   0.00023660314690   0.00000000000000   0.00000000000000   0.00000000000000   0.00000000000000   0.00000000000000
   0.00183483325080   0.00000000000000   0.00000000000000   0.00000000000000   0.00000000000000   0.00000000000000
   0.00954658498600   0.00000000000000   0.00000000000000   0.00000000000000   0.00000000000000   0.00000000000000
   0.03887714215300   0.00000000000000   0.00000000000000   0.00000000000000   0.00000000000000   0.00000000000000
   0.12718314231000   0.00000000000000   0.00000000000000   0.00000000000000   0.00000000000000   0.00000000000000
   0.30437662191000   0.00000000000000   0.00000000000000   0.00000000000000   0.00000000000000   0.00000000000000
   0.44490940497000   0.00000000000000   0.00000000000000   0.00000000000000   0.00000000000000   0.00000000000000
   0.24381643058000   0.00000000000000   0.00000000000000   0.00000000000000   0.00000000000000   0.00000000000000
   0.00000000000000  -0.02652715870900   0.00000000000000   0.00000000000000   0.00000000000000   0.00000000000000
   0.00000000000000  -0.12484584809000   0.00000000000000   0.00000000000000   0.00000000000000   0.00000000000000
   0.00000000000000   0.56468683559000   0.00000000000000   0.00000000000000   0.00000000000000   0.00000000000000
   0.00000000000000   0.55555268564000   0.00000000000000   0.00000000000000   0.00000000000000   0.00000000000000
   0.00000000000000   0.00000000000000  -0.24940920493000   0.00000000000000   0.00000000000000   0.00000000000000
   0.00000000000000   0.00000000000000   0.71213119743000   0.00000000000000   0.00000000000000   0.00000000000000
   0.00000000000000   0.00000000000000   0.00000000000000   1.00000000000000   0.00000000000000   0.00000000000000
   0.00000000000000   0.00000000000000   0.00000000000000   0.00000000000000   1.00000000000000   0.00000000000000
   0.00000000000000   0.00000000000000   0.00000000000000   0.00000000000000   0.00000000000000   1.00000000000000
* p-type functions
   13    5
     3019.6955723000
      715.3548112600
      229.9832875100
       86.1678446150
       34.6678708020
       14.1138703070
       57.0856530820
        8.8193845840
        3.9340302872
        1.7998830384
     6689.9410512e-4
     2713.6238231e-4
     1008.3790243e-4
   0.00249710497980   0.00000000000000   0.00000000000000   0.00000000000000   0.00000000000000
   0.02041926759600   0.00000000000000   0.00000000000000   0.00000000000000   0.00000000000000
   0.09689714830900   0.00000000000000   0.00000000000000   0.00000000000000   0.00000000000000
   0.28053901252000   0.00000000000000   0.00000000000000   0.00000000000000   0.00000000000000
   0.44606390473000   0.00000000000000   0.00000000000000   0.00000000000000   0.00000000000000
   0.24410073923000   0.00000000000000   0.00000000000000   0.00000000000000   0.00000000000000
   0.00000000000000  -0.02185595071000   0.00000000000000   0.00000000000000   0.00000000000000
   0.00000000000000   0.32707075320000   0.00000000000000   0.00000000000000   0.00000000000000
   0.00000000000000   0.57855229520000   0.00000000000000   0.00000000000000   0.00000000000000
   0.00000000000000   0.33570987698000   0.00000000000000   0.00000000000000   0.00000000000000
   0.00000000000000   0.00000000000000   1.00000000000000   0.00000000000000   0.00000000000000
   0.00000000000000   0.00000000000000   0.00000000000000   1.00000000000000   0.00000000000000
   0.00000000000000   0.00000000000000   0.00000000000000   0.00000000000000   1.00000000000000
* d-type functions
    7    3
      168.8537025700
       49.9779499190
       18.2749133380
        7.2455694631
        2.8562315025
        1.0459621144
        0.3890000000
   0.00896639819880   0.00000000000000   0.00000000000000
   0.06206205931600   0.00000000000000   0.00000000000000
   0.21474732384000   0.00000000000000   0.00000000000000
   0.40335336746000   0.00000000000000   0.00000000000000
   0.42208813080000   0.00000000000000   0.00000000000000
   0.00000000000000   0.17874813267000   0.00000000000000
   0.00000000000000   0.00000000000000   1.00000000000000

/Kr.def-TZVP.Schafer.17s13p7d.6s5p3d.
A. Schafer, C. Huber, R. Ahlrichs. J. Chem. Phys. 100 (1994) 5829-5835. doi:10.1063/1.467146
KRYPTON (17s,13p,7d) -> [6s,5p,3d]
    36.0   2
* s-type functions
   17    6
   600250.9757500000
    89976.6507810000
    20476.8142250000
     5796.1554078000
     1887.5913196000
      679.1145851900
      264.3824451100
      104.8836857400
      641.4737076400
      199.5752482000
       33.5454629540
       14.6839551440
       22.6031018600
        4.0650682991
        1.9611027060
     5246.5147979e-4
     1933.2399511e-4
   0.00023740610399   0.00000000000000   0.00000000000000   0.00000000000000   0.00000000000000   0.00000000000000
   0.00184102405390   0.00000000000000   0.00000000000000   0.00000000000000   0.00000000000000   0.00000000000000
   0.00957955806990   0.00000000000000   0.00000000000000   0.00000000000000   0.00000000000000   0.00000000000000
   0.03902065048800   0.00000000000000   0.00000000000000   0.00000000000000   0.00000000000000   0.00000000000000
   0.12772645628000   0.00000000000000   0.00000000000000   0.00000000000000   0.00000000000000   0.00000000000000
   0.30596521300000   0.00000000000000   0.00000000000000   0.00000000000000   0.00000000000000   0.00000000000000
   0.44857474437000   0.00000000000000   0.00000000000000   0.00000000000000   0.00000000000000   0.00000000000000
   0.24722957327000   0.00000000000000   0.00000000000000   0.00000000000000   0.00000000000000   0.00000000000000
   0.00000000000000  -0.02674527980500   0.00000000000000   0.00000000000000   0.00000000000000   0.00000000000000
   0.00000000000000  -0.12571122567000   0.00000000000000   0.00000000000000   0.00000000000000   0.00000000000000
   0.00000000000000   0.56483736390000   0.00000000000000   0.00000000000000   0.00000000000000   0.00000000000000
   0.00000000000000   0.55972765539000   0.00000000000000   0.00000000000000   0.00000000000000   0.00000000000000
   0.00000000000000   0.00000000000000  -0.25298771800000   0.00000000000000   0.00000000000000   0.00000000000000
   0.00000000000000   0.00000000000000   0.70992159965000   0.00000000000000   0.00000000000000   0.00000000000000
   0.00000000000000   0.00000000000000   0.00000000000000   1.00000000000000   0.00000000000000   0.00000000000000
   0.00000000000000   0.00000000000000   0.00000000000000   0.00000000000000   1.00000000000000   0.00000000000000
   0.00000000000000   0.00000000000000   0.00000000000000   0.00000000000000   0.00000000000000   1.00000000000000
* p-type functions
   13    5
     3232.9589614000
      765.9644269400
      246.3394081000
       92.3652830410
       37.1995095510
       15.1721665340
       60.9313216980
        9.4792600646
        4.2564686326
        1.9729313762
     7633.7108716e-4
     3094.3625526e-4
     1156.9704458e-4
   0.00248856079740   0.00000000000000   0.00000000000000   0.00000000000000   0.00000000000000
   0.02037900742800   0.00000000000000   0.00000000000000   0.00000000000000   0.00000000000000
   0.09697718858400   0.00000000000000   0.00000000000000   0.00000000000000   0.00000000000000
   0.28199960954000   0.00000000000000   0.00000000000000   0.00000000000000   0.00000000000000
   0.45116254358000   0.00000000000000   0.00000000000000   0.00000000000000   0.00000000000000
   0.24917131496000   0.00000000000000   0.00000000000000   0.00000000000000   0.00000000000000
   0.00000000000000  -0.02217360351900   0.00000000000000   0.00000000000000   0.00000000000000
   0.00000000000000   0.32838462778000   0.00000000000000   0.00000000000000   0.00000000000000
   0.00000000000000   0.58124997120000   0.00000000000000   0.00000000000000   0.00000000000000
   0.00000000000000   0.32863541783000   0.00000000000000   0.00000000000000   0.00000000000000
   0.00000000000000   0.00000000000000   1.00000000000000   0.00000000000000   0.00000000000000
   0.00000000000000   0.00000000000000   0.00000000000000   1.00000000000000   0.00000000000000
   0.00000000000000   0.00000000000000   0.00000000000000   0.00000000000000   1.00000000000000
* d-type functions
    7    3
      186.4176090400
       55.2741243450
       20.2832191200
        8.0884536976
        3.2214033853
        1.1952170102
        0.4430000000
   0.00861202846010   0.00000000000000   0.00000000000000
   0.06039440630400   0.00000000000000   0.00000000000000
   0.21181331869000   0.00000000000000   0.00000000000000
   0.40366293413000   0.00000000000000   0.00000000000000
   0.42402860686000   0.00000000000000   0.00000000000000
   0.00000000000000   0.17441742274000   0.00000000000000
   0.00000000000000   0.00000000000000   1.00000000000000
