************************************************************************
* This file is part of OpenMolcas.                                     *
*                                                                      *
* OpenMolcas is free software; you can redistribute it and/or modify   *
* it under the terms of the GNU Lesser General Public License, v. 2.1. *
* OpenMolcas is distributed in the hope that it will be useful, but it *
* is provided "as is" and without any express or implied warranties.   *
* For more details see the full text of the license in the file        *
* LICENSE or in <http://www.gnu.org/licenses/>.                        *
************************************************************************

#Hamiltonian NRH
#Nucleus UNK
#Contraction SEG
#AllElectron AE_

************************************************************************
* This file has been generated from Basis Set Exchange data:           *
*   https://www.basissetexchange.org                                   *
* Version: 1  (Data from Turbomole 7.3)                                *
************************************************************************

/H.def2-TZVP.Weigend.5s1p.3s1p.
F. Weigend, R. Ahlrichs. Phys. Chem. Chem. Phys. 7 (2005) 3297. doi:10.1039/b508541a
HYDROGEN (5s,1p) -> [3s,1p]
     1.0   1
* s-type functions
    5    3
       34.0613410000
        5.1235746000
        1.1646626000
        0.3272304100
        0.1030724100
  0.0060251978000000  0.0000000000000000  0.0000000000000000
  0.0450210940000000  0.0000000000000000  0.0000000000000000
  0.2018972600000000  0.0000000000000000  0.0000000000000000
  0.0000000000000000  1.0000000000000000  0.0000000000000000
  0.0000000000000000  0.0000000000000000  1.0000000000000000
* p-type functions
    1    1
        0.8000000000
  1.0000000000000000

/He.def2-TZVP.Weigend.5s1p.3s1p.
F. Weigend, R. Ahlrichs. Phys. Chem. Chem. Phys. 7 (2005) 3297. doi:10.1039/b508541a
HELIUM (5s,1p) -> [3s,1p]
     2.0   1
* s-type functions
    5    3
       98.0783216160
       14.7644042470
        3.3185831473
     8741.3869551e-4
     2445.9897208e-4
  0.0075803064967000  0.0000000000000000  0.0000000000000000
  0.0548486209370000  0.0000000000000000  0.0000000000000000
  0.2207438218600000  0.0000000000000000  0.0000000000000000
  0.0000000000000000  1.0000000000000000  0.0000000000000000
  0.0000000000000000  0.0000000000000000  1.0000000000000000
* p-type functions
    1    1
        1.0000000000
  1.0000000000000000

/Li.def2-TZVP.Weigend.11s3p.5s3p.
F. Weigend, R. Ahlrichs. Phys. Chem. Chem. Phys. 7 (2005) 3297. doi:10.1039/b508541a
LITHIUM (11s,3p) -> [5s,3p]
     3.0   1
* s-type functions
   11    5
     6269.2628010000
      940.3161243100
      214.2210752800
       60.7598401840
       19.9151520320
        7.3171509797
        2.9724674216
        1.2639852314
     5142.7489953e-4
     7703.0885901e-5
     2893.8896433e-5
  0.0002054096882600  0.0000000000000000  0.0000000000000000  0.0000000000000000  0.0000000000000000
  0.0015916554089000  0.0000000000000000  0.0000000000000000  0.0000000000000000  0.0000000000000000
  0.0082869829707000  0.0000000000000000  0.0000000000000000  0.0000000000000000  0.0000000000000000
  0.0338563742490000  0.0000000000000000  0.0000000000000000  0.0000000000000000  0.0000000000000000
  0.1110322587600000  0.0000000000000000  0.0000000000000000  0.0000000000000000  0.0000000000000000
  0.2744938332900000  0.0000000000000000  0.0000000000000000  0.0000000000000000  0.0000000000000000
  0.0000000000000000  0.2379245641100000  0.0000000000000000  0.0000000000000000  0.0000000000000000
  0.0000000000000000  0.3076541192400000  0.0000000000000000  0.0000000000000000  0.0000000000000000
  0.0000000000000000  0.0000000000000000  1.0000000000000000  0.0000000000000000  0.0000000000000000
  0.0000000000000000  0.0000000000000000  0.0000000000000000  1.0000000000000000  0.0000000000000000
  0.0000000000000000  0.0000000000000000  0.0000000000000000  0.0000000000000000  1.0000000000000000
* p-type functions
    3    3
        0.4000000000
        0.0600000000
        3.3270000000
  1.0000000000000000  0.0000000000000000  0.0000000000000000
  0.0000000000000000  1.0000000000000000  0.0000000000000000
  0.0000000000000000  0.0000000000000000  1.0000000000000000

/Be.def2-TZVP.Weigend.11s4p1d.5s3p1d.
F. Weigend, R. Ahlrichs. Phys. Chem. Chem. Phys. 7 (2005) 3297. doi:10.1039/b508541a
BERYLLIUM (11s,4p,1d) -> [5s,3p,1d]
     4.0   2
* s-type functions
   11    5
     4700.2365626000
      704.8284562200
      160.4311047800
       45.4253473360
       14.7983341250
        5.3512452537
        2.1542044819
        0.9336374440
     1879.1432989e-4
     7464.8267947e-5
     3265.0484598e-5
  0.0002358438931600  0.0000000000000000  0.0000000000000000  0.0000000000000000  0.0000000000000000
  0.0018243791019000  0.0000000000000000  0.0000000000000000  0.0000000000000000  0.0000000000000000
  0.0093966148224000  0.0000000000000000  0.0000000000000000  0.0000000000000000  0.0000000000000000
  0.0369089241590000  0.0000000000000000  0.0000000000000000  0.0000000000000000  0.0000000000000000
  0.1089756128100000  0.0000000000000000  0.0000000000000000  0.0000000000000000  0.0000000000000000
  0.2169428455100000  0.0000000000000000  0.0000000000000000  0.0000000000000000  0.0000000000000000
  0.0000000000000000  0.4469540885700000  0.0000000000000000  0.0000000000000000  0.0000000000000000
  0.0000000000000000  0.2086698577100000  0.0000000000000000  0.0000000000000000  0.0000000000000000
  0.0000000000000000  0.0000000000000000  1.0000000000000000  0.0000000000000000  0.0000000000000000
  0.0000000000000000  0.0000000000000000  0.0000000000000000  1.0000000000000000  0.0000000000000000
  0.0000000000000000  0.0000000000000000  0.0000000000000000  0.0000000000000000  1.0000000000000000
* p-type functions
    4    3
     7169.5694366e-4
        0.1954193286
        3.6316917145
      605.1546589e-4
 -0.1687785403200000  0.0000000000000000  0.0000000000000000
 -0.5140341962800000  0.0000000000000000  0.0000000000000000
  0.0000000000000000 -0.0290339983050000  0.0000000000000000
  0.0000000000000000  0.0000000000000000  1.0000000000000000
* d-type functions
    1    1
        0.1800000000
  1.0000000000000000

/B.def2-TZVP.Weigend.11s6p2d1f.5s3p2d1f.
F. Weigend, R. Ahlrichs. Phys. Chem. Chem. Phys. 7 (2005) 3297. doi:10.1039/b508541a
BORON (11s,6p,2d,1f) -> [5s,3p,2d,1f]
     5.0   3
* s-type functions
   11    5
     8564.8660687000
     1284.1516263000
      292.2787160400
       82.7754691760
       27.0179392690
        9.8149619660
        3.9318559059
        1.6595599712
     3576.2965239e-4
     1424.6277496e-4
     6056.0594768e-5
  0.0002283719815500  0.0000000000000000  0.0000000000000000  0.0000000000000000  0.0000000000000000
  0.0017682576447000  0.0000000000000000  0.0000000000000000  0.0000000000000000  0.0000000000000000
  0.0091407080516000  0.0000000000000000  0.0000000000000000  0.0000000000000000  0.0000000000000000
  0.0363426389890000  0.0000000000000000  0.0000000000000000  0.0000000000000000  0.0000000000000000
  0.1106345844100000  0.0000000000000000  0.0000000000000000  0.0000000000000000  0.0000000000000000
  0.2336734432100000  0.0000000000000000  0.0000000000000000  0.0000000000000000  0.0000000000000000
  0.0000000000000000  0.4181877797800000  0.0000000000000000  0.0000000000000000  0.0000000000000000
  0.0000000000000000  0.2232547379800000  0.0000000000000000  0.0000000000000000  0.0000000000000000
  0.0000000000000000  0.0000000000000000  1.0000000000000000  0.0000000000000000  0.0000000000000000
  0.0000000000000000  0.0000000000000000  0.0000000000000000  1.0000000000000000  0.0000000000000000
  0.0000000000000000  0.0000000000000000  0.0000000000000000  0.0000000000000000  1.0000000000000000
* p-type functions
    6    3
       22.4538758030
        5.1045058330
        1.4986081344
     5092.7831315e-4
     1814.7077798e-4
     6462.1893904e-5
  0.0050265575179000  0.0000000000000000  0.0000000000000000
  0.0328017389650000  0.0000000000000000  0.0000000000000000
  0.1315123076800000  0.0000000000000000  0.0000000000000000
  0.3319716776900000  0.0000000000000000  0.0000000000000000
  0.0000000000000000  0.4731431957000000  0.0000000000000000
  0.0000000000000000  0.0000000000000000  0.2580278394300000
* d-type functions
    2    2
        0.6610000000
        0.1990000000
  1.0000000000000000  0.0000000000000000
  0.0000000000000000  1.0000000000000000
* f-type functions
    1    1
        0.4900000000
  1.0000000000000000

/C.def2-TZVP.Weigend.11s6p2d1f.5s3p2d1f.
F. Weigend, R. Ahlrichs. Phys. Chem. Chem. Phys. 7 (2005) 3297. doi:10.1039/b508541a
CARBON (11s,6p,2d,1f) -> [5s,3p,2d,1f]
     6.0   3
* s-type functions
   11    5
    13575.3496820000
     2035.2333680000
      463.2256235900
      131.2001959800
       42.8530158910
       15.5841857660
        6.2067138508
        2.5764896527
     5769.6339419e-4
     2297.2831358e-4
     9516.4440028e-5
  0.0002224581435200  0.0000000000000000  0.0000000000000000  0.0000000000000000  0.0000000000000000
  0.0017232738252000  0.0000000000000000  0.0000000000000000  0.0000000000000000  0.0000000000000000
  0.0089255715314000  0.0000000000000000  0.0000000000000000  0.0000000000000000  0.0000000000000000
  0.0357279845020000  0.0000000000000000  0.0000000000000000  0.0000000000000000  0.0000000000000000
  0.1107625993100000  0.0000000000000000  0.0000000000000000  0.0000000000000000  0.0000000000000000
  0.2429562762600000  0.0000000000000000  0.0000000000000000  0.0000000000000000  0.0000000000000000
  0.0000000000000000  0.4144026344800000  0.0000000000000000  0.0000000000000000  0.0000000000000000
  0.0000000000000000  0.2374496865500000  0.0000000000000000  0.0000000000000000  0.0000000000000000
  0.0000000000000000  0.0000000000000000  1.0000000000000000  0.0000000000000000  0.0000000000000000
  0.0000000000000000  0.0000000000000000  0.0000000000000000  1.0000000000000000  0.0000000000000000
  0.0000000000000000  0.0000000000000000  0.0000000000000000  0.0000000000000000  1.0000000000000000
* p-type functions
    6    3
       34.6972322440
        7.9582622826
        2.3780826883
     8143.3208183e-4
     2888.7547253e-4
     1005.6823671e-4
  0.0053333657805000  0.0000000000000000  0.0000000000000000
  0.0358641090920000  0.0000000000000000  0.0000000000000000
  0.1421587332900000  0.0000000000000000  0.0000000000000000
  0.3427047184500000  0.0000000000000000  0.0000000000000000
  0.0000000000000000  0.4644582243300000  0.0000000000000000
  0.0000000000000000  0.0000000000000000  0.2495578987400000
* d-type functions
    2    2
        1.0970000000
        0.3180000000
  1.0000000000000000  0.0000000000000000
  0.0000000000000000  1.0000000000000000
* f-type functions
    1    1
        0.7610000000
  1.0000000000000000

/N.def2-TZVP.Weigend.11s6p2d1f.5s3p2d1f.
F. Weigend, R. Ahlrichs. Phys. Chem. Chem. Phys. 7 (2005) 3297. doi:10.1039/b508541a
NITROGEN (11s,6p,2d,1f) -> [5s,3p,2d,1f]
     7.0   3
* s-type functions
   11    5
    19730.8006470000
     2957.8958745000
      673.2213359500
      190.6824949400
       62.2954418980
       22.6541611820
        8.9791477428
        3.6863002370
     8466.0076805e-4
     3364.7133771e-4
     1364.7653675e-4
  0.0002188798499100  0.0000000000000000  0.0000000000000000  0.0000000000000000  0.0000000000000000
  0.0016960708803000  0.0000000000000000  0.0000000000000000  0.0000000000000000  0.0000000000000000
  0.0087954603538000  0.0000000000000000  0.0000000000000000  0.0000000000000000  0.0000000000000000
  0.0353593826050000  0.0000000000000000  0.0000000000000000  0.0000000000000000  0.0000000000000000
  0.1109578921700000  0.0000000000000000  0.0000000000000000  0.0000000000000000  0.0000000000000000
  0.2498297255200000  0.0000000000000000  0.0000000000000000  0.0000000000000000  0.0000000000000000
  0.0000000000000000  0.4062389614800000  0.0000000000000000  0.0000000000000000  0.0000000000000000
  0.0000000000000000  0.2433821717600000  0.0000000000000000  0.0000000000000000  0.0000000000000000
  0.0000000000000000  0.0000000000000000  1.0000000000000000  0.0000000000000000  0.0000000000000000
  0.0000000000000000  0.0000000000000000  0.0000000000000000  1.0000000000000000  0.0000000000000000
  0.0000000000000000  0.0000000000000000  0.0000000000000000  0.0000000000000000  1.0000000000000000
* p-type functions
    6    3
       49.2003805100
       11.3467905370
        3.4273972411
        1.1785525134
     4164.2204972e-4
     1426.0826011e-4
  0.0055552416751000  0.0000000000000000  0.0000000000000000
  0.0380523797230000  0.0000000000000000  0.0000000000000000
  0.1495367102900000  0.0000000000000000  0.0000000000000000
  0.3494930523000000  0.0000000000000000  0.0000000000000000
  0.0000000000000000  0.4584315369700000  0.0000000000000000
  0.0000000000000000  0.0000000000000000  0.2442877167200000
* d-type functions
    2    2
        1.6540000000
        0.4690000000
  1.0000000000000000  0.0000000000000000
  0.0000000000000000  1.0000000000000000
* f-type functions
    1    1
        1.0930000000
  1.0000000000000000

/O.def2-TZVP.Weigend.11s6p2d1f.5s3p2d1f.
F. Weigend, R. Ahlrichs. Phys. Chem. Chem. Phys. 7 (2005) 3297. doi:10.1039/b508541a
OXYGEN (11s,6p,2d,1f) -> [5s,3p,2d,1f]
     8.0   3
* s-type functions
   11    5
    27032.3826310000
     4052.3871392000
      922.3272271000
      261.2407098900
       85.3546413510
       31.0350352450
       12.2608607280
        4.9987076005
        1.1703108158
     4647.4740994e-4
     1850.4536357e-4
  0.0002172630246500  0.0000000000000000  0.0000000000000000  0.0000000000000000  0.0000000000000000
  0.0016838662199000  0.0000000000000000  0.0000000000000000  0.0000000000000000  0.0000000000000000
  0.0087395616265000  0.0000000000000000  0.0000000000000000  0.0000000000000000  0.0000000000000000
  0.0352399688080000  0.0000000000000000  0.0000000000000000  0.0000000000000000  0.0000000000000000
  0.1115351911500000  0.0000000000000000  0.0000000000000000  0.0000000000000000  0.0000000000000000
  0.2558895396100000  0.0000000000000000  0.0000000000000000  0.0000000000000000  0.0000000000000000
  0.0000000000000000  0.3976873090100000  0.0000000000000000  0.0000000000000000  0.0000000000000000
  0.0000000000000000  0.2462784943000000  0.0000000000000000  0.0000000000000000  0.0000000000000000
  0.0000000000000000  0.0000000000000000  1.0000000000000000  0.0000000000000000  0.0000000000000000
  0.0000000000000000  0.0000000000000000  0.0000000000000000  1.0000000000000000  0.0000000000000000
  0.0000000000000000  0.0000000000000000  0.0000000000000000  0.0000000000000000  1.0000000000000000
* p-type functions
    6    3
       63.2749548010
       14.6270493790
        4.4501223456
        1.5275799647
     5293.5117943e-4
        0.1747842127
  0.0060685103418000  0.0000000000000000  0.0000000000000000
  0.0419125758240000  0.0000000000000000  0.0000000000000000
  0.1615384108800000  0.0000000000000000  0.0000000000000000
  0.3570695131100000  0.0000000000000000  0.0000000000000000
  0.0000000000000000  0.4479420750200000  0.0000000000000000
  0.0000000000000000  0.0000000000000000  0.2444606966300000
* d-type functions
    2    2
        2.3140000000
        0.6450000000
  1.0000000000000000  0.0000000000000000
  0.0000000000000000  1.0000000000000000
* f-type functions
    1    1
        1.4280000000
  1.0000000000000000

/F.def2-TZVP.Weigend.11s6p2d1f.5s3p2d1f.
F. Weigend, R. Ahlrichs. Phys. Chem. Chem. Phys. 7 (2005) 3297. doi:10.1039/b508541a
FLUORINE (11s,6p,2d,1f) -> [5s,3p,2d,1f]
     9.0   3
* s-type functions
   11    5
    35479.1004410000
     5318.4728983000
     1210.4810975000
      342.8551814000
      112.0194318100
       40.7147402480
       16.0396781110
        6.5038186740
        1.5440477509
     6122.3452862e-4
     2402.7979698e-4
  0.0002154501488800  0.0000000000000000  0.0000000000000000  0.0000000000000000  0.0000000000000000
  0.0016700686527000  0.0000000000000000  0.0000000000000000  0.0000000000000000  0.0000000000000000
  0.0086733211476000  0.0000000000000000  0.0000000000000000  0.0000000000000000  0.0000000000000000
  0.0350499331750000  0.0000000000000000  0.0000000000000000  0.0000000000000000  0.0000000000000000
  0.1116532013300000  0.0000000000000000  0.0000000000000000  0.0000000000000000  0.0000000000000000
  0.2598850664700000  0.0000000000000000  0.0000000000000000  0.0000000000000000  0.0000000000000000
  0.0000000000000000  0.3942296688000000  0.0000000000000000  0.0000000000000000  0.0000000000000000
  0.0000000000000000  0.2499823855100000  0.0000000000000000  0.0000000000000000  0.0000000000000000
  0.0000000000000000  0.0000000000000000  1.0000000000000000  0.0000000000000000  0.0000000000000000
  0.0000000000000000  0.0000000000000000  0.0000000000000000  1.0000000000000000  0.0000000000000000
  0.0000000000000000  0.0000000000000000  0.0000000000000000  0.0000000000000000  1.0000000000000000
* p-type functions
    6    3
       80.2339004830
       18.5940107430
        5.6867902653
        1.9511006294
     6697.0211298e-4
        0.2165130041
  0.0063685999134000  0.0000000000000000  0.0000000000000000
  0.0443031435300000  0.0000000000000000  0.0000000000000000
  0.1686724870800000  0.0000000000000000  0.0000000000000000
  0.3616634625500000  0.0000000000000000  0.0000000000000000
  0.0000000000000000  0.4420290149100000  0.0000000000000000
  0.0000000000000000  0.0000000000000000  0.2431987573000000
* d-type functions
    2    2
        3.1070000000
        0.8550000000
  1.0000000000000000  0.0000000000000000
  0.0000000000000000  1.0000000000000000
* f-type functions
    1    1
        1.9170000000
  1.0000000000000000

/Ne.def2-TZVP.Weigend.11s6p2d1f.5s3p2d1f.
F. Weigend, R. Ahlrichs. Phys. Chem. Chem. Phys. 7 (2005) 3297. doi:10.1039/b508541a
NEON (11s,6p,2d,1f) -> [5s,3p,2d,1f]
    10.0   3
* s-type functions
   11    5
    45069.4640220000
     6755.9768656000
     1537.6502864000
      435.5169766700
      142.2865563800
       51.6921538040
       20.3158704900
        8.2021942646
        1.9681276278
     7790.4756001e-4
     3022.9502043e-4
  0.0002168715518200  0.0000000000000000  0.0000000000000000  0.0000000000000000  0.0000000000000000
  0.0016812736757000  0.0000000000000000  0.0000000000000000  0.0000000000000000  0.0000000000000000
  0.0087356062782000  0.0000000000000000  0.0000000000000000  0.0000000000000000  0.0000000000000000
  0.0353612669220000  0.0000000000000000  0.0000000000000000  0.0000000000000000  0.0000000000000000
  0.1132152145400000  0.0000000000000000  0.0000000000000000  0.0000000000000000  0.0000000000000000
  0.2665465310400000  0.0000000000000000  0.0000000000000000  0.0000000000000000  0.0000000000000000
  0.0000000000000000  0.3963195995100000  0.0000000000000000  0.0000000000000000  0.0000000000000000
  0.0000000000000000  0.2558281125100000  0.0000000000000000  0.0000000000000000  0.0000000000000000
  0.0000000000000000  0.0000000000000000  1.0000000000000000  0.0000000000000000  0.0000000000000000
  0.0000000000000000  0.0000000000000000  0.0000000000000000  1.0000000000000000  0.0000000000000000
  0.0000000000000000  0.0000000000000000  0.0000000000000000  0.0000000000000000  1.0000000000000000
* p-type functions
    6    3
       99.7829960320
       23.1761241010
        7.1163945872
        2.4418711435
     8338.9605766e-4
     2660.7311301e-4
  0.0065569234163000  0.0000000000000000  0.0000000000000000
  0.0458880091380000  0.0000000000000000  0.0000000000000000
  0.1733128781200000  0.0000000000000000  0.0000000000000000
  0.3647526751200000  0.0000000000000000  0.0000000000000000
  0.0000000000000000  0.4383107517100000  0.0000000000000000
  0.0000000000000000  0.0000000000000000  0.2416002983500000
* d-type functions
    2    2
        4.0140000000
        1.0960000000
  1.0000000000000000  0.0000000000000000
  0.0000000000000000  1.0000000000000000
* f-type functions
    1    1
        2.5440000000
  1.0000000000000000

/Na.def2-TZVP.Weigend.14s8p3d.5s4p3d.
F. Weigend, R. Ahlrichs. Phys. Chem. Chem. Phys. 7 (2005) 3297. doi:10.1039/b508541a
SODIUM (14s,8p,3d) -> [5s,4p,3d]
    11.0   2
* s-type functions
   14    5
    26041.1099270000
     3906.1268548000
      888.9745499300
      251.4549796100
       81.6501435120
       28.9041584010
       10.6257829320
       53.7694101790
       16.3082430250
        2.3730384125
     9573.0772603e-4
     4080.6460959e-4
     4996.7582329e-5
      192.6861625e-4
  0.0006180634281100  0.0000000000000000  0.0000000000000000  0.0000000000000000  0.0000000000000000
  0.0047748604414000  0.0000000000000000  0.0000000000000000  0.0000000000000000  0.0000000000000000
  0.0244716848290000  0.0000000000000000  0.0000000000000000  0.0000000000000000  0.0000000000000000
  0.0947553949770000  0.0000000000000000  0.0000000000000000  0.0000000000000000  0.0000000000000000
  0.2686749692000000  0.0000000000000000  0.0000000000000000  0.0000000000000000  0.0000000000000000
  0.4792547544000000  0.0000000000000000  0.0000000000000000  0.0000000000000000  0.0000000000000000
  0.3324859146900000  0.0000000000000000  0.0000000000000000  0.0000000000000000  0.0000000000000000
  0.0000000000000000  0.0195277318720000  0.0000000000000000  0.0000000000000000  0.0000000000000000
  0.0000000000000000  0.0926480107940000  0.0000000000000000  0.0000000000000000  0.0000000000000000
  0.0000000000000000 -0.3993867017200000  0.0000000000000000  0.0000000000000000  0.0000000000000000
  0.0000000000000000  0.0000000000000000  1.6428595391000000  0.0000000000000000  0.0000000000000000
  0.0000000000000000  0.0000000000000000  0.5569259696600000  0.0000000000000000  0.0000000000000000
  0.0000000000000000  0.0000000000000000  0.0000000000000000  1.0000000000000000  0.0000000000000000
  0.0000000000000000  0.0000000000000000  0.0000000000000000  0.0000000000000000  1.0000000000000000
* p-type functions
    8    4
      138.0797998900
       32.2327003930
        9.9816075360
        3.4822033928
        1.2299134620
     4174.3959423e-4
        0.0300000000
        0.0910000000
  0.0057951891929000  0.0000000000000000  0.0000000000000000  0.0000000000000000
  0.0416208462510000  0.0000000000000000  0.0000000000000000  0.0000000000000000
  0.1628191688500000  0.0000000000000000  0.0000000000000000  0.0000000000000000
  0.3601178464700000  0.0000000000000000  0.0000000000000000  0.0000000000000000
  0.4485897988900000  0.0000000000000000  0.0000000000000000  0.0000000000000000
  0.0000000000000000  0.2304075955900000  0.0000000000000000  0.0000000000000000
  0.0000000000000000  0.0000000000000000  1.0000000000000000  0.0000000000000000
  0.0000000000000000  0.0000000000000000  0.0000000000000000  1.0000000000000000
* d-type functions
    3    3
        2.6090000000
        0.4300000000
        0.1000000000
  1.0000000000000000  0.0000000000000000  0.0000000000000000
  0.0000000000000000  1.0000000000000000  0.0000000000000000
  0.0000000000000000  0.0000000000000000  1.0000000000000000

/Mg.def2-TZVP.Weigend.14s8p3d.5s4p3d.
F. Weigend, R. Ahlrichs. Phys. Chem. Chem. Phys. 7 (2005) 3297. doi:10.1039/b508541a
MAGNESIUM (14s,8p,3d) -> [5s,4p,3d]
    12.0   2
* s-type functions
   14    5
    31438.3495550000
     4715.5153354000
     1073.1629247000
      303.5723876800
       98.6262510420
       34.9438084170
       12.8597851990
       64.8769130040
       19.7255207770
        2.8951804339
        1.1960454710
     5432.9451156e-4
     1009.9104092e-4
     3686.5728085e-5
  0.0006091231132600  0.0000000000000000  0.0000000000000000  0.0000000000000000  0.0000000000000000
  0.0047066196465000  0.0000000000000000  0.0000000000000000  0.0000000000000000  0.0000000000000000
  0.0241358206570000  0.0000000000000000  0.0000000000000000  0.0000000000000000  0.0000000000000000
  0.0936289598340000  0.0000000000000000  0.0000000000000000  0.0000000000000000  0.0000000000000000
  0.2664674209300000  0.0000000000000000  0.0000000000000000  0.0000000000000000  0.0000000000000000
  0.4789092991700000  0.0000000000000000  0.0000000000000000  0.0000000000000000  0.0000000000000000
  0.3369849028600000  0.0000000000000000  0.0000000000000000  0.0000000000000000  0.0000000000000000
  0.0000000000000000  0.0191808893070000  0.0000000000000000  0.0000000000000000  0.0000000000000000
  0.0000000000000000  0.0909137043920000  0.0000000000000000  0.0000000000000000  0.0000000000000000
  0.0000000000000000 -0.3956375612500000  0.0000000000000000  0.0000000000000000  0.0000000000000000
  0.0000000000000000  0.0000000000000000  1.6827603373000000  0.0000000000000000  0.0000000000000000
  0.0000000000000000  0.0000000000000000  0.5214109195400000  0.0000000000000000  0.0000000000000000
  0.0000000000000000  0.0000000000000000  0.0000000000000000  1.0000000000000000  0.0000000000000000
  0.0000000000000000  0.0000000000000000  0.0000000000000000  0.0000000000000000  1.0000000000000000
* p-type functions
    8    4
      179.8718961200
       42.1200693760
       13.1205030320
        4.6257503609
        1.6695211016
     5855.1012105e-4
     1891.4796195e-4
     5376.8755187e-5
  0.0053799549018000  0.0000000000000000  0.0000000000000000  0.0000000000000000
  0.0393180140980000  0.0000000000000000  0.0000000000000000  0.0000000000000000
  0.1574012947600000  0.0000000000000000  0.0000000000000000  0.0000000000000000
  0.3591909412800000  0.0000000000000000  0.0000000000000000  0.0000000000000000
  0.4553337931000000  0.0000000000000000  0.0000000000000000  0.0000000000000000
  0.0000000000000000  0.2198643291000000  0.0000000000000000  0.0000000000000000
  0.0000000000000000  0.0000000000000000  1.0000000000000000  0.0000000000000000
  0.0000000000000000  0.0000000000000000  0.0000000000000000  1.0000000000000000
* d-type functions
    3    3
        3.4440000000
        0.2900000000
        0.0700000000
  1.0000000000000000  0.0000000000000000  0.0000000000000000
  0.0000000000000000  1.0000000000000000  0.0000000000000000
  0.0000000000000000  0.0000000000000000  1.0000000000000000

/Al.def2-TZVP.Weigend.14s9p3d1f.5s5p2d1f.
F. Weigend, R. Ahlrichs. Phys. Chem. Chem. Phys. 7 (2005) 3297. doi:10.1039/b508541a
ALUMINIUM (14s,9p,3d,1f) -> [5s,5p,2d,1f]
    13.0   3
* s-type functions
   14    5
    37792.5507720000
     5668.0682165000
     1289.8582841000
      364.8659602800
      118.5763151500
       42.0248676050
       15.4995016290
       75.2080265980
       23.0314089720
        3.6348797649
        1.6065049957
     7610.3394581e-4
     1655.6708849e-4
     6004.1577113e-5
  0.0005704788870900  0.0000000000000000  0.0000000000000000  0.0000000000000000  0.0000000000000000
  0.0044093016538000  0.0000000000000000  0.0000000000000000  0.0000000000000000  0.0000000000000000
  0.0226309674110000  0.0000000000000000  0.0000000000000000  0.0000000000000000  0.0000000000000000
  0.0880256442950000  0.0000000000000000  0.0000000000000000  0.0000000000000000  0.0000000000000000
  0.2522370161200000  0.0000000000000000  0.0000000000000000  0.0000000000000000  0.0000000000000000
  0.4596054716900000  0.0000000000000000  0.0000000000000000  0.0000000000000000  0.0000000000000000
  0.3327788601400000  0.0000000000000000  0.0000000000000000  0.0000000000000000  0.0000000000000000
  0.0000000000000000  0.0192505601900000  0.0000000000000000  0.0000000000000000  0.0000000000000000
  0.0000000000000000  0.0879067439520000  0.0000000000000000  0.0000000000000000  0.0000000000000000
  0.0000000000000000 -0.3424670453500000  0.0000000000000000  0.0000000000000000  0.0000000000000000
  0.0000000000000000  0.0000000000000000  1.5106266058000000  0.0000000000000000  0.0000000000000000
  0.0000000000000000  0.0000000000000000  0.5807101647000000  0.0000000000000000  0.0000000000000000
  0.0000000000000000  0.0000000000000000  0.0000000000000000  1.0000000000000000  0.0000000000000000
  0.0000000000000000  0.0000000000000000  0.0000000000000000  0.0000000000000000  1.0000000000000000
* p-type functions
    9    5
      452.5230319200
      107.0819504900
       34.1310212550
       12.5870374280
        4.9811919704
        2.0070350900
     8008.3714374e-4
     2017.8927472e-4
     5789.5550392e-5
  0.0023110812466000  0.0000000000000000  0.0000000000000000  0.0000000000000000  0.0000000000000000
  0.0185686418230000  0.0000000000000000  0.0000000000000000  0.0000000000000000  0.0000000000000000
  0.0872162370350000  0.0000000000000000  0.0000000000000000  0.0000000000000000  0.0000000000000000
  0.2690210152300000  0.0000000000000000  0.0000000000000000  0.0000000000000000  0.0000000000000000
  0.5212832427200000  0.0000000000000000  0.0000000000000000  0.0000000000000000  0.0000000000000000
  0.0000000000000000  0.6027168749400000  0.0000000000000000  0.0000000000000000  0.0000000000000000
  0.0000000000000000  0.0000000000000000  1.0000000000000000  0.0000000000000000  0.0000000000000000
  0.0000000000000000  0.0000000000000000  0.0000000000000000  1.0000000000000000  0.0000000000000000
  0.0000000000000000  0.0000000000000000  0.0000000000000000  0.0000000000000000  1.0000000000000000
* d-type functions
    3    2
        0.1110000000
        1.5700000000
        0.3330000000
  1.0000000000000000  0.0000000000000000
  0.0000000000000000  0.2000000000000000
  0.0000000000000000  1.0000000000000000
* f-type functions
    1    1
        0.2440000000
  1.0000000000000000

/Si.def2-TZVP.Weigend.14s9p3d1f.5s5p2d1f.
F. Weigend, R. Ahlrichs. Phys. Chem. Chem. Phys. 7 (2005) 3297. doi:10.1039/b508541a
SILICON (14s,9p,3d,1f) -> [5s,5p,2d,1f]
    14.0   3
* s-type functions
   14    5
    44773.3580780000
     6717.1992104000
     1528.8960325000
      432.5474658500
      140.6150522600
       49.8576367240
       18.4349748850
       86.5338861110
       26.6246068460
        4.4953057159
        2.1035045710
        1.0106094922
     2370.1751489e-4
     8570.3405362e-5
  0.0005591476586800  0.0000000000000000  0.0000000000000000  0.0000000000000000  0.0000000000000000
  0.0043206040189000  0.0000000000000000  0.0000000000000000  0.0000000000000000  0.0000000000000000
  0.0221870964600000  0.0000000000000000  0.0000000000000000  0.0000000000000000  0.0000000000000000
  0.0864892491160000  0.0000000000000000  0.0000000000000000  0.0000000000000000  0.0000000000000000
  0.2493988971600000  0.0000000000000000  0.0000000000000000  0.0000000000000000  0.0000000000000000
  0.4601719736600000  0.0000000000000000  0.0000000000000000  0.0000000000000000  0.0000000000000000
  0.3425023657500000  0.0000000000000000  0.0000000000000000  0.0000000000000000  0.0000000000000000
  0.0000000000000000  0.0213000630070000  0.0000000000000000  0.0000000000000000  0.0000000000000000
  0.0000000000000000  0.0946761393180000  0.0000000000000000  0.0000000000000000  0.0000000000000000
  0.0000000000000000 -0.3261626485900000  0.0000000000000000  0.0000000000000000  0.0000000000000000
  0.0000000000000000  0.0000000000000000  1.3980803850000000  0.0000000000000000  0.0000000000000000
  0.0000000000000000  0.0000000000000000  0.6386578669900000  0.0000000000000000  0.0000000000000000
  0.0000000000000000  0.0000000000000000  0.0000000000000000  1.0000000000000000  0.0000000000000000
  0.0000000000000000  0.0000000000000000  0.0000000000000000  0.0000000000000000  1.0000000000000000
* p-type functions
    9    5
      394.4750362800
       93.1376831040
       29.5196087420
       10.7816637910
        4.1626574778
        1.6247972989
     5430.6660493e-4
     2058.2073956e-4
     7005.3487306e-5
  0.0026285693959000  0.0000000000000000  0.0000000000000000  0.0000000000000000  0.0000000000000000
  0.0205562577490000  0.0000000000000000  0.0000000000000000  0.0000000000000000  0.0000000000000000
  0.0920702628010000  0.0000000000000000  0.0000000000000000  0.0000000000000000  0.0000000000000000
  0.2556588973900000  0.0000000000000000  0.0000000000000000  0.0000000000000000  0.0000000000000000
  0.4211170718500000  0.0000000000000000  0.0000000000000000  0.0000000000000000  0.0000000000000000
  0.0000000000000000  0.3440174631800000  0.0000000000000000  0.0000000000000000  0.0000000000000000
  0.0000000000000000  0.0000000000000000  1.0000000000000000  0.0000000000000000  0.0000000000000000
  0.0000000000000000  0.0000000000000000  0.0000000000000000  1.0000000000000000  0.0000000000000000
  0.0000000000000000  0.0000000000000000  0.0000000000000000  0.0000000000000000  1.0000000000000000
* d-type functions
    3    2
        0.1600000000
        2.3030000000
        0.4760000000
  1.0000000000000000  0.0000000000000000
  0.0000000000000000  0.2000000000000000
  0.0000000000000000  1.0000000000000000
* f-type functions
    1    1
        0.3360000000
  1.0000000000000000

/P.def2-TZVP.Weigend.14s9p3d1f.5s5p2d1f.
F. Weigend, R. Ahlrichs. Phys. Chem. Chem. Phys. 7 (2005) 3297. doi:10.1039/b508541a
PHOSPHORUS (14s,9p,3d,1f) -> [5s,5p,2d,1f]
    15.0   3
* s-type functions
   14    5
    52426.9992330000
     7863.2660552000
     1789.5227333000
      506.2730016500
      164.6069854600
       58.3919187220
       21.6436632010
       99.0138376200
       30.5504398170
        5.4537087661
        2.6503362563
        1.2726688867
     3164.5005203e-4
     1141.7466938e-4
  0.0005520716410000  0.0000000000000000  0.0000000000000000  0.0000000000000000  0.0000000000000000
  0.0042678595308000  0.0000000000000000  0.0000000000000000  0.0000000000000000  0.0000000000000000
  0.0219315291860000  0.0000000000000000  0.0000000000000000  0.0000000000000000  0.0000000000000000
  0.0856671683730000  0.0000000000000000  0.0000000000000000  0.0000000000000000  0.0000000000000000
  0.2484068660500000  0.0000000000000000  0.0000000000000000  0.0000000000000000  0.0000000000000000
  0.4633675397100000  0.0000000000000000  0.0000000000000000  0.0000000000000000  0.0000000000000000
  0.3535055815600000  0.0000000000000000  0.0000000000000000  0.0000000000000000  0.0000000000000000
  0.0000000000000000  0.0218956799580000  0.0000000000000000  0.0000000000000000  0.0000000000000000
  0.0000000000000000  0.0956504702950000  0.0000000000000000  0.0000000000000000  0.0000000000000000
  0.0000000000000000 -0.2945427018600000  0.0000000000000000  0.0000000000000000  0.0000000000000000
  0.0000000000000000  0.0000000000000000  1.3294381200000000  0.0000000000000000  0.0000000000000000
  0.0000000000000000  0.0000000000000000  0.6610939647300000  0.0000000000000000  0.0000000000000000
  0.0000000000000000  0.0000000000000000  0.0000000000000000  1.0000000000000000  0.0000000000000000
  0.0000000000000000  0.0000000000000000  0.0000000000000000  0.0000000000000000  1.0000000000000000
* p-type functions
    9    5
      472.2721924800
      111.5888275600
       35.4459364180
       12.9907768750
        5.0486221658
        1.9934049566
        0.6652728443
     2551.6832128e-4
     9035.7762251e-5
  0.0025710623052000  0.0000000000000000  0.0000000000000000  0.0000000000000000  0.0000000000000000
  0.0202502979990000  0.0000000000000000  0.0000000000000000  0.0000000000000000  0.0000000000000000
  0.0915807167870000  0.0000000000000000  0.0000000000000000  0.0000000000000000  0.0000000000000000
  0.2574945401400000  0.0000000000000000  0.0000000000000000  0.0000000000000000  0.0000000000000000
  0.4286289975800000  0.0000000000000000  0.0000000000000000  0.0000000000000000  0.0000000000000000
  0.0000000000000000  0.3435981784900000  0.0000000000000000  0.0000000000000000  0.0000000000000000
  0.0000000000000000  0.0000000000000000  1.0000000000000000  0.0000000000000000  0.0000000000000000
  0.0000000000000000  0.0000000000000000  0.0000000000000000  1.0000000000000000  0.0000000000000000
  0.0000000000000000  0.0000000000000000  0.0000000000000000  0.0000000000000000  1.0000000000000000
* d-type functions
    3    2
        0.2180000000
        3.1200000000
        0.6480000000
  1.0000000000000000  0.0000000000000000
  0.0000000000000000  0.2000000000000000
  0.0000000000000000  1.0000000000000000
* f-type functions
    1    1
        0.4520000000
  1.0000000000000000

/S.def2-TZVP.Weigend.14s9p3d1f.5s5p2d1f.
F. Weigend, R. Ahlrichs. Phys. Chem. Chem. Phys. 7 (2005) 3297. doi:10.1039/b508541a
SULFUR (14s,9p,3d,1f) -> [5s,5p,2d,1f]
    16.0   3
* s-type functions
   14    5
    60700.9281040000
     9102.6106854000
     2071.4166009000
      586.0247682100
      190.5539502100
       67.6303842600
       25.1273069050
      112.5746301000
       34.7955542170
        6.5115556215
        3.2399032261
        1.5477160881
     4054.1030112e-4
     1455.0651059e-4
  0.0005469594422500  0.0000000000000000  0.0000000000000000  0.0000000000000000  0.0000000000000000
  0.0042297224557000  0.0000000000000000  0.0000000000000000  0.0000000000000000  0.0000000000000000
  0.0217478241590000  0.0000000000000000  0.0000000000000000  0.0000000000000000  0.0000000000000000
  0.0851000535890000  0.0000000000000000  0.0000000000000000  0.0000000000000000  0.0000000000000000
  0.2479912845900000  0.0000000000000000  0.0000000000000000  0.0000000000000000  0.0000000000000000
  0.4670364040600000  0.0000000000000000  0.0000000000000000  0.0000000000000000  0.0000000000000000
  0.3643458755000000  0.0000000000000000  0.0000000000000000  0.0000000000000000  0.0000000000000000
  0.0000000000000000  0.0216700402400000  0.0000000000000000  0.0000000000000000  0.0000000000000000
  0.0000000000000000  0.0936023017600000  0.0000000000000000  0.0000000000000000  0.0000000000000000
  0.0000000000000000 -0.2606800142200000  0.0000000000000000  0.0000000000000000  0.0000000000000000
  0.0000000000000000  0.0000000000000000  1.2842089435000000  0.0000000000000000  0.0000000000000000
  0.0000000000000000  0.0000000000000000  0.6603641658400000  0.0000000000000000  0.0000000000000000
  0.0000000000000000  0.0000000000000000  0.0000000000000000  1.0000000000000000  0.0000000000000000
  0.0000000000000000  0.0000000000000000  0.0000000000000000  0.0000000000000000  1.0000000000000000
* p-type functions
    9    5
      564.3671602700
      133.4262437900
       42.4682711890
       15.6165275800
        6.1093988469
        2.4404160198
     8388.2201296e-4
        0.3128874690
     1077.0109004e-4
  0.0024796796317000  0.0000000000000000  0.0000000000000000  0.0000000000000000  0.0000000000000000
  0.0196779302500000  0.0000000000000000  0.0000000000000000  0.0000000000000000  0.0000000000000000
  0.0899800082580000  0.0000000000000000  0.0000000000000000  0.0000000000000000  0.0000000000000000
  0.2570588057500000  0.0000000000000000  0.0000000000000000  0.0000000000000000  0.0000000000000000
  0.4351516729200000  0.0000000000000000  0.0000000000000000  0.0000000000000000  0.0000000000000000
  0.0000000000000000  0.3488324059500000  0.0000000000000000  0.0000000000000000  0.0000000000000000
  0.0000000000000000  0.0000000000000000  1.0000000000000000  0.0000000000000000  0.0000000000000000
  0.0000000000000000  0.0000000000000000  0.0000000000000000  1.0000000000000000  0.0000000000000000
  0.0000000000000000  0.0000000000000000  0.0000000000000000  0.0000000000000000  1.0000000000000000
* d-type functions
    3    2
        0.2730000000
        3.7560000000
        0.8120000000
  1.0000000000000000  0.0000000000000000
  0.0000000000000000  0.2000000000000000
  0.0000000000000000  1.0000000000000000
* f-type functions
    1    1
        0.5570000000
  1.0000000000000000

/Cl.def2-TZVP.Weigend.14s9p3d1f.5s5p2d1f.
F. Weigend, R. Ahlrichs. Phys. Chem. Chem. Phys. 7 (2005) 3297. doi:10.1039/b508541a
CHLORINE (14s,9p,3d,1f) -> [5s,5p,2d,1f]
    17.0   3
* s-type functions
   14    5
    69507.9909450000
    10426.1568800000
     2373.2334061000
      671.5642007100
      218.4199979000
       77.5722497140
       28.8888152770
      127.1052718500
       39.3395829610
        7.6740679989
        3.8745627630
        1.8385832573
     5022.9057542e-4
        0.1796272342
  0.0005431489749700  0.0000000000000000  0.0000000000000000  0.0000000000000000  0.0000000000000000
  0.0041990463961000  0.0000000000000000  0.0000000000000000  0.0000000000000000  0.0000000000000000
  0.0215921416790000  0.0000000000000000  0.0000000000000000  0.0000000000000000  0.0000000000000000
  0.0845988500940000  0.0000000000000000  0.0000000000000000  0.0000000000000000  0.0000000000000000
  0.2475724972400000  0.0000000000000000  0.0000000000000000  0.0000000000000000  0.0000000000000000
  0.4701693022800000  0.0000000000000000  0.0000000000000000  0.0000000000000000  0.0000000000000000
  0.3743637071600000  0.0000000000000000  0.0000000000000000  0.0000000000000000  0.0000000000000000
  0.0000000000000000  0.0251821666030000  0.0000000000000000  0.0000000000000000  0.0000000000000000
  0.0000000000000000  0.1078611245600000  0.0000000000000000  0.0000000000000000  0.0000000000000000
  0.0000000000000000 -0.2740882157400000  0.0000000000000000  0.0000000000000000  0.0000000000000000
  0.0000000000000000  0.0000000000000000  1.3213875014000000  0.0000000000000000  0.0000000000000000
  0.0000000000000000  0.0000000000000000  0.6863695536800000  0.0000000000000000  0.0000000000000000
  0.0000000000000000  0.0000000000000000  0.0000000000000000  1.0000000000000000  0.0000000000000000
  0.0000000000000000  0.0000000000000000  0.0000000000000000  0.0000000000000000  1.0000000000000000
* p-type functions
    9    5
      666.5042328400
      157.6424169000
       50.2625209780
       18.5360781050
        7.2940532777
        2.9433248995
        1.0404970818
        0.3845641508
     1306.9642732e-4
  0.0023632663836000  0.0000000000000000  0.0000000000000000  0.0000000000000000  0.0000000000000000
  0.0188793003740000  0.0000000000000000  0.0000000000000000  0.0000000000000000  0.0000000000000000
  0.0872063412730000  0.0000000000000000  0.0000000000000000  0.0000000000000000  0.0000000000000000
  0.2528561297000000  0.0000000000000000  0.0000000000000000  0.0000000000000000  0.0000000000000000
  0.4350715482000000  0.0000000000000000  0.0000000000000000  0.0000000000000000  0.0000000000000000
  0.0000000000000000  0.3502651316500000  0.0000000000000000  0.0000000000000000  0.0000000000000000
  0.0000000000000000  0.0000000000000000  1.0000000000000000  0.0000000000000000  0.0000000000000000
  0.0000000000000000  0.0000000000000000  0.0000000000000000  1.0000000000000000  0.0000000000000000
  0.0000000000000000  0.0000000000000000  0.0000000000000000  0.0000000000000000  1.0000000000000000
* d-type functions
    3    2
        0.3390000000
        4.6100000000
        1.0110000000
  1.0000000000000000  0.0000000000000000
  0.0000000000000000  0.2000000000000000
  0.0000000000000000  1.0000000000000000
* f-type functions
    1    1
        0.7060000000
  1.0000000000000000

/Ar.def2-TZVP.Weigend.14s9p3d1f.5s5p2d1f.
F. Weigend, R. Ahlrichs. Phys. Chem. Chem. Phys. 7 (2005) 3297. doi:10.1039/b508541a
ARGON (14s,9p,3d,1f) -> [5s,5p,2d,1f]
    18.0   3
* s-type functions
   14    5
    79111.4229980000
    11864.7460090000
     2700.1642973000
      763.9594348500
      248.4515056100
       88.2835810000
       32.9486070690
      142.5535800000
       44.1636880090
        8.9524995000
        4.5546920941
        2.1444079001
     6070.8777004e-4
     2165.1431999e-4
  0.0005102932500200  0.0000000000000000  0.0000000000000000  0.0000000000000000  0.0000000000000000
  0.0039463036981000  0.0000000000000000  0.0000000000000000  0.0000000000000000  0.0000000000000000
  0.0203070739100000  0.0000000000000000  0.0000000000000000  0.0000000000000000  0.0000000000000000
  0.0796918252140000  0.0000000000000000  0.0000000000000000  0.0000000000000000  0.0000000000000000
  0.2342062383600000  0.0000000000000000  0.0000000000000000  0.0000000000000000  0.0000000000000000
  0.4483384948100000  0.0000000000000000  0.0000000000000000  0.0000000000000000  0.0000000000000000
  0.3640816740000000  0.0000000000000000  0.0000000000000000  0.0000000000000000  0.0000000000000000
  0.0000000000000000  0.0263874070010000  0.0000000000000000  0.0000000000000000  0.0000000000000000
  0.0000000000000000  0.1122643399900000  0.0000000000000000  0.0000000000000000  0.0000000000000000
  0.0000000000000000 -0.2617892200100000  0.0000000000000000  0.0000000000000000  0.0000000000000000
  0.0000000000000000  0.0000000000000000  1.3002484998000000  0.0000000000000000  0.0000000000000000
  0.0000000000000000  0.0000000000000000  0.6719723700900000  0.0000000000000000  0.0000000000000000
  0.0000000000000000  0.0000000000000000  0.0000000000000000  1.0000000000000000  0.0000000000000000
  0.0000000000000000  0.0000000000000000  0.0000000000000000  0.0000000000000000  1.0000000000000000
* p-type functions
    9    5
      776.7754199800
      183.8010701800
       58.6940031750
       21.7015916950
        8.5821489635
        3.4922679161
        1.2637426998
     4660.7870005e-4
        0.1576600300
  0.0022028005003000  0.0000000000000000  0.0000000000000000  0.0000000000000000  0.0000000000000000
  0.0176941800080000  0.0000000000000000  0.0000000000000000  0.0000000000000000  0.0000000000000000
  0.0824312937170000  0.0000000000000000  0.0000000000000000  0.0000000000000000  0.0000000000000000
  0.2420727886300000  0.0000000000000000  0.0000000000000000  0.0000000000000000  0.0000000000000000
  0.4226355825100000  0.0000000000000000  0.0000000000000000  0.0000000000000000  0.0000000000000000
  0.0000000000000000  0.3415180608600000  0.0000000000000000  0.0000000000000000  0.0000000000000000
  0.0000000000000000  0.0000000000000000  1.0000000000000000  0.0000000000000000  0.0000000000000000
  0.0000000000000000  0.0000000000000000  0.0000000000000000  1.0000000000000000  0.0000000000000000
  0.0000000000000000  0.0000000000000000  0.0000000000000000  0.0000000000000000  1.0000000000000000
* d-type functions
    3    2
        0.4120000000
        5.5510000000
        1.2350000000
  1.0000000000000000  0.0000000000000000
  0.0000000000000000  0.2000000000000000
  0.0000000000000000  1.0000000000000000
* f-type functions
    1    1
        0.8900000000
  1.0000000000000000

/K.def2-TZVP.Weigend.17s11p3d.6s4p3d.
F. Weigend, R. Ahlrichs. Phys. Chem. Chem. Phys. 7 (2005) 3297. doi:10.1039/b508541a
POTASSIUM (17s,11p,3d) -> [6s,4p,3d]
    19.0   2
* s-type functions
   17    6
   153976.1832500000
    23082.4976720000
     5253.2344745000
     1486.9550133000
      484.0633372600
      173.5665398000
       67.1163814640
       26.3395020540
      172.8769356700
       53.0586490630
        7.9212753964
        3.2108880472
        4.5662070895
     7020.9907282e-4
     2825.8942635e-4
     3580.5824617e-5
     1581.9213245e-5
  0.0002366263610700  0.0000000000000000  0.0000000000000000  0.0000000000000000  0.0000000000000000  0.0000000000000000
  0.0018342929137000  0.0000000000000000  0.0000000000000000  0.0000000000000000  0.0000000000000000  0.0000000000000000
  0.0095310527769000  0.0000000000000000  0.0000000000000000  0.0000000000000000  0.0000000000000000  0.0000000000000000
  0.0386384069800000  0.0000000000000000  0.0000000000000000  0.0000000000000000  0.0000000000000000  0.0000000000000000
  0.1248076850200000  0.0000000000000000  0.0000000000000000  0.0000000000000000  0.0000000000000000  0.0000000000000000
  0.2927886100900000  0.0000000000000000  0.0000000000000000  0.0000000000000000  0.0000000000000000  0.0000000000000000
  0.4063342586000000  0.0000000000000000  0.0000000000000000  0.0000000000000000  0.0000000000000000  0.0000000000000000
  0.2007721586000000  0.0000000000000000  0.0000000000000000  0.0000000000000000  0.0000000000000000  0.0000000000000000
  0.0000000000000000 -0.0242009609360000  0.0000000000000000  0.0000000000000000  0.0000000000000000  0.0000000000000000
  0.0000000000000000 -0.1155309504000000  0.0000000000000000  0.0000000000000000  0.0000000000000000  0.0000000000000000
  0.0000000000000000  0.5745554517500000  0.0000000000000000  0.0000000000000000  0.0000000000000000  0.0000000000000000
  0.0000000000000000  0.5702318510700000  0.0000000000000000  0.0000000000000000  0.0000000000000000  0.0000000000000000
  0.0000000000000000  0.0000000000000000 -0.2261576346600000  0.0000000000000000  0.0000000000000000  0.0000000000000000
  0.0000000000000000  0.0000000000000000  0.7552839204500000  0.0000000000000000  0.0000000000000000  0.0000000000000000
  0.0000000000000000  0.0000000000000000  0.0000000000000000  1.0000000000000000  0.0000000000000000  0.0000000000000000
  0.0000000000000000  0.0000000000000000  0.0000000000000000  0.0000000000000000  1.0000000000000000  0.0000000000000000
  0.0000000000000000  0.0000000000000000  0.0000000000000000  0.0000000000000000  0.0000000000000000  1.0000000000000000
* p-type functions
   11    4
      728.1844987300
      172.1326506100
       54.8298470750
       20.1662664940
        7.8610728806
        3.1105213132
       11.7573374920
        1.5139617411
     5832.8591795e-4
     2157.0478076e-4
        0.0417370000
  0.0026150689792000  0.0000000000000000  0.0000000000000000  0.0000000000000000
  0.0206736308350000  0.0000000000000000  0.0000000000000000  0.0000000000000000
  0.0932056038700000  0.0000000000000000  0.0000000000000000  0.0000000000000000
  0.2543651821000000  0.0000000000000000  0.0000000000000000  0.0000000000000000
  0.3913113281000000  0.0000000000000000  0.0000000000000000  0.0000000000000000
  0.2248134594300000  0.0000000000000000  0.0000000000000000  0.0000000000000000
  0.0000000000000000 -0.0257772892170000  0.0000000000000000  0.0000000000000000
  0.0000000000000000  0.5735942860400000  0.0000000000000000  0.0000000000000000
  0.0000000000000000  1.0798320002000000  0.0000000000000000  0.0000000000000000
  0.0000000000000000  0.0000000000000000  1.0000000000000000  0.0000000000000000
  0.0000000000000000  0.0000000000000000  0.0000000000000000  1.0000000000000000
* d-type functions
    3    3
        0.9300000000
        0.1800000000
        0.0540000000
  1.0000000000000000  0.0000000000000000  0.0000000000000000
  0.0000000000000000  1.0000000000000000  0.0000000000000000
  0.0000000000000000  0.0000000000000000  1.0000000000000000

/Ca.def2-TZVP.Weigend.17s12p4d.6s5p3d.
F. Weigend, R. Ahlrichs. Phys. Chem. Chem. Phys. 7 (2005) 3297. doi:10.1039/b508541a
CALCIUM (17s,12p,4d) -> [6s,5p,3d]
    20.0   2
* s-type functions
   17    6
   172517.3268500000
    25861.5192750000
     5885.6618668000
     1665.9730031000
      542.3671814800
      194.5780349200
       75.3035976360
       29.5740625890
      191.2007466000
       58.8402998830
        8.9642540845
        3.6856960541
        5.2464289726
     8486.2621528e-4
     3674.3300538e-4
     6682.1582613e-5
     2675.9730445e-5
  0.0002331750254600  0.0000000000000000  0.0000000000000000  0.0000000000000000  0.0000000000000000  0.0000000000000000
  0.0018076521980000  0.0000000000000000  0.0000000000000000  0.0000000000000000  0.0000000000000000  0.0000000000000000
  0.0093943844255000  0.0000000000000000  0.0000000000000000  0.0000000000000000  0.0000000000000000  0.0000000000000000
  0.0381084090090000  0.0000000000000000  0.0000000000000000  0.0000000000000000  0.0000000000000000  0.0000000000000000
  0.1233120385300000  0.0000000000000000  0.0000000000000000  0.0000000000000000  0.0000000000000000  0.0000000000000000
  0.2900447095400000  0.0000000000000000  0.0000000000000000  0.0000000000000000  0.0000000000000000  0.0000000000000000
  0.4058715115700000  0.0000000000000000  0.0000000000000000  0.0000000000000000  0.0000000000000000  0.0000000000000000
  0.2039841074300000  0.0000000000000000  0.0000000000000000  0.0000000000000000  0.0000000000000000  0.0000000000000000
  0.0000000000000000 -0.0244197597590000  0.0000000000000000  0.0000000000000000  0.0000000000000000  0.0000000000000000
  0.0000000000000000 -0.1154702744800000  0.0000000000000000  0.0000000000000000  0.0000000000000000  0.0000000000000000
  0.0000000000000000  0.5635663671700000  0.0000000000000000  0.0000000000000000  0.0000000000000000  0.0000000000000000
  0.0000000000000000  0.5670968270400000  0.0000000000000000  0.0000000000000000  0.0000000000000000  0.0000000000000000
  0.0000000000000000  0.0000000000000000 -0.2282533432500000  0.0000000000000000  0.0000000000000000  0.0000000000000000
  0.0000000000000000  0.0000000000000000  0.7262521917200000  0.0000000000000000  0.0000000000000000  0.0000000000000000
  0.0000000000000000  0.0000000000000000  0.0000000000000000  1.0000000000000000  0.0000000000000000  0.0000000000000000
  0.0000000000000000  0.0000000000000000  0.0000000000000000  0.0000000000000000  1.0000000000000000  0.0000000000000000
  0.0000000000000000  0.0000000000000000  0.0000000000000000  0.0000000000000000  0.0000000000000000  1.0000000000000000
* p-type functions
   12    5
      836.9726205800
      197.9304014200
       63.1355580540
       23.2826871700
        9.1176444932
        3.6336120139
       13.4941631200
        1.8139259790
     7198.1826006e-4
     2762.9576992e-4
        0.0749790000
        0.0269270000
  0.0025258346092000  0.0000000000000000  0.0000000000000000  0.0000000000000000  0.0000000000000000
  0.0200765066860000  0.0000000000000000  0.0000000000000000  0.0000000000000000  0.0000000000000000
  0.0913029873660000  0.0000000000000000  0.0000000000000000  0.0000000000000000  0.0000000000000000
  0.2524702991500000  0.0000000000000000  0.0000000000000000  0.0000000000000000  0.0000000000000000
  0.3942632634400000  0.0000000000000000  0.0000000000000000  0.0000000000000000  0.0000000000000000
  0.2301155949200000  0.0000000000000000  0.0000000000000000  0.0000000000000000  0.0000000000000000
  0.0000000000000000 -0.0264950219510000  0.0000000000000000  0.0000000000000000  0.0000000000000000
  0.0000000000000000  0.5508810821000000  0.0000000000000000  0.0000000000000000  0.0000000000000000
  0.0000000000000000  1.0280616620000000  0.0000000000000000  0.0000000000000000  0.0000000000000000
  0.0000000000000000  0.0000000000000000  1.0000000000000000  0.0000000000000000  0.0000000000000000
  0.0000000000000000  0.0000000000000000  0.0000000000000000  1.0000000000000000  0.0000000000000000
  0.0000000000000000  0.0000000000000000  0.0000000000000000  0.0000000000000000  1.0000000000000000
* d-type functions
    4    3
        5.4979093879
        1.3177128032
     3218.8682649e-4
     7052.8614919e-5
  0.0737700114330000  0.0000000000000000  0.0000000000000000
  0.2605285316900000  0.0000000000000000  0.0000000000000000
  0.0000000000000000  0.4523383638000000  0.0000000000000000
  0.0000000000000000  0.0000000000000000  1.0000000000000000

/Sc.def2-TZVP.Weigend.17s11p7d1f.6s4p4d1f.
F. Weigend, R. Ahlrichs. Phys. Chem. Chem. Phys. 7 (2005) 3297. doi:10.1039/b508541a
SCANDIUM (17s,11p,7d,1f) -> [6s,4p,4d,1f]
    21.0   3
* s-type functions
   17    6
   191612.9187400000
    28723.8503630000
     6537.0116490000
     1850.3097171000
      602.3885515600
      216.1732476600
       83.7125178800
       32.9087071890
      211.3439323400
       65.1289201390
       10.0343115350
        4.1596884597
        6.0009041613
        0.9825578415
     4248.3192773e-4
     7718.5462096e-5
     3014.7219702e-5
  0.0002307647594200  0.0000000000000000  0.0000000000000000  0.0000000000000000  0.0000000000000000  0.0000000000000000
  0.0017890329946000  0.0000000000000000  0.0000000000000000  0.0000000000000000  0.0000000000000000  0.0000000000000000
  0.0092990401140000  0.0000000000000000  0.0000000000000000  0.0000000000000000  0.0000000000000000  0.0000000000000000
  0.0377394380110000  0.0000000000000000  0.0000000000000000  0.0000000000000000  0.0000000000000000  0.0000000000000000
  0.1222714835900000  0.0000000000000000  0.0000000000000000  0.0000000000000000  0.0000000000000000  0.0000000000000000
  0.2881482147000000  0.0000000000000000  0.0000000000000000  0.0000000000000000  0.0000000000000000  0.0000000000000000
  0.4051754309900000  0.0000000000000000  0.0000000000000000  0.0000000000000000  0.0000000000000000  0.0000000000000000
  0.2056601962300000  0.0000000000000000  0.0000000000000000  0.0000000000000000  0.0000000000000000  0.0000000000000000
  0.0000000000000000 -0.0245279914620000  0.0000000000000000  0.0000000000000000  0.0000000000000000  0.0000000000000000
  0.0000000000000000 -0.1157015814200000  0.0000000000000000  0.0000000000000000  0.0000000000000000  0.0000000000000000
  0.0000000000000000  0.5599528331700000  0.0000000000000000  0.0000000000000000  0.0000000000000000  0.0000000000000000
  0.0000000000000000  0.5608776507300000  0.0000000000000000  0.0000000000000000  0.0000000000000000  0.0000000000000000
  0.0000000000000000  0.0000000000000000 -0.2284049432500000  0.0000000000000000  0.0000000000000000  0.0000000000000000
  0.0000000000000000  0.0000000000000000  0.7194897037800000  0.0000000000000000  0.0000000000000000  0.0000000000000000
  0.0000000000000000  0.0000000000000000  0.0000000000000000  1.0000000000000000  0.0000000000000000  0.0000000000000000
  0.0000000000000000  0.0000000000000000  0.0000000000000000  0.0000000000000000  1.0000000000000000  0.0000000000000000
  0.0000000000000000  0.0000000000000000  0.0000000000000000  0.0000000000000000  0.0000000000000000  1.0000000000000000
* p-type functions
   11    4
      947.3412282300
      224.0969973200
       71.5603348820
       26.4448244900
       10.3937982850
        4.1606304559
       15.5657371350
        2.1121544865
     8418.4709021e-4
     3229.7542652e-4
        0.0897480000
  0.0024737208744000  0.0000000000000000  0.0000000000000000  0.0000000000000000
  0.0197429670600000  0.0000000000000000  0.0000000000000000  0.0000000000000000
  0.0903571475490000  0.0000000000000000  0.0000000000000000  0.0000000000000000
  0.2520160250300000  0.0000000000000000  0.0000000000000000  0.0000000000000000
  0.3967553592900000  0.0000000000000000  0.0000000000000000  0.0000000000000000
  0.2320862451700000  0.0000000000000000  0.0000000000000000  0.0000000000000000
  0.0000000000000000 -0.0271294239740000  0.0000000000000000  0.0000000000000000
  0.0000000000000000  0.5510925662900000  0.0000000000000000  0.0000000000000000
  0.0000000000000000  1.0090635806000000  0.0000000000000000  0.0000000000000000
  0.0000000000000000  0.0000000000000000  1.0000000000000000  0.0000000000000000
  0.0000000000000000  0.0000000000000000  0.0000000000000000  1.0000000000000000
* d-type functions
    7    4
       30.9893909930
        8.6905465069
        2.9520256337
        1.0761910745
     3833.8915095e-4
     1253.4686113e-4
        0.0410000000
  0.0119028374310000  0.0000000000000000  0.0000000000000000  0.0000000000000000
  0.0676558568500000  0.0000000000000000  0.0000000000000000  0.0000000000000000
  0.2133253972200000  0.0000000000000000  0.0000000000000000  0.0000000000000000
  0.3839107557800000  0.0000000000000000  0.0000000000000000  0.0000000000000000
  0.0000000000000000  0.4335471625900000  0.0000000000000000  0.0000000000000000
  0.0000000000000000  0.0000000000000000  0.2450926382200000  0.0000000000000000
  0.0000000000000000  0.0000000000000000  0.0000000000000000  1.0000000000000000
* f-type functions
    1    1
        0.3450000000
  1.0000000000000000

/Ti.def2-TZVP.Weigend.17s11p7d1f.6s4p4d1f.
F. Weigend, R. Ahlrichs. Phys. Chem. Chem. Phys. 7 (2005) 3297. doi:10.1039/b508541a
TITANIUM (17s,11p,7d,1f) -> [6s,4p,4d,1f]
    22.0   3
* s-type functions
   17    6
   211575.6902500000
    31714.9450580000
     7217.5476543000
     2042.9394247000
      665.1289620800
      238.7494226400
       92.5086910010
       36.4039192090
      232.7262460700
       71.7912097110
       11.1585346150
        4.6548135416
        6.8034629174
        1.1201076403
     4808.0118839e-4
     8515.7274977e-5
     3265.7477046e-5
  0.0002331815101100  0.0000000000000000  0.0000000000000000  0.0000000000000000  0.0000000000000000  0.0000000000000000
  0.0018079690851000  0.0000000000000000  0.0000000000000000  0.0000000000000000  0.0000000000000000  0.0000000000000000
  0.0093984311352000  0.0000000000000000  0.0000000000000000  0.0000000000000000  0.0000000000000000  0.0000000000000000
  0.0381568536180000  0.0000000000000000  0.0000000000000000  0.0000000000000000  0.0000000000000000  0.0000000000000000
  0.1237475719700000  0.0000000000000000  0.0000000000000000  0.0000000000000000  0.0000000000000000  0.0000000000000000
  0.2920855114300000  0.0000000000000000  0.0000000000000000  0.0000000000000000  0.0000000000000000  0.0000000000000000
  0.4122680085500000  0.0000000000000000  0.0000000000000000  0.0000000000000000  0.0000000000000000  0.0000000000000000
  0.2109053406100000  0.0000000000000000  0.0000000000000000  0.0000000000000000  0.0000000000000000  0.0000000000000000
  0.0000000000000000 -0.0249201407380000  0.0000000000000000  0.0000000000000000  0.0000000000000000  0.0000000000000000
  0.0000000000000000 -0.1174649008700000  0.0000000000000000  0.0000000000000000  0.0000000000000000  0.0000000000000000
  0.0000000000000000  0.5650334231800000  0.0000000000000000  0.0000000000000000  0.0000000000000000  0.0000000000000000
  0.0000000000000000  0.5621110181200000  0.0000000000000000  0.0000000000000000  0.0000000000000000  0.0000000000000000
  0.0000000000000000  0.0000000000000000 -0.2301142550300000  0.0000000000000000  0.0000000000000000  0.0000000000000000
  0.0000000000000000  0.0000000000000000  0.7210318673500000  0.0000000000000000  0.0000000000000000  0.0000000000000000
  0.0000000000000000  0.0000000000000000  0.0000000000000000  1.0000000000000000  0.0000000000000000  0.0000000000000000
  0.0000000000000000  0.0000000000000000  0.0000000000000000  0.0000000000000000  1.0000000000000000  0.0000000000000000
  0.0000000000000000  0.0000000000000000  0.0000000000000000  0.0000000000000000  0.0000000000000000  1.0000000000000000
* p-type functions
   11    4
     1063.1474732000
      251.5650706100
       80.4085548540
       29.7681932690
       11.7368305560
        4.7142375230
       17.7968037040
        2.4272698680
     9682.3445537e-4
     3705.6694165e-4
        0.1015610000
  0.0024690839320000  0.0000000000000000  0.0000000000000000  0.0000000000000000
  0.0197733455230000  0.0000000000000000  0.0000000000000000  0.0000000000000000
  0.0909879766720000  0.0000000000000000  0.0000000000000000  0.0000000000000000
  0.2555990041300000  0.0000000000000000  0.0000000000000000  0.0000000000000000
  0.4048938676400000  0.0000000000000000  0.0000000000000000  0.0000000000000000
  0.2369340255800000  0.0000000000000000  0.0000000000000000  0.0000000000000000
  0.0000000000000000 -0.0278786396150000  0.0000000000000000  0.0000000000000000
  0.0000000000000000  0.5567291466800000  0.0000000000000000  0.0000000000000000
  0.0000000000000000  1.0055447350000000  0.0000000000000000  0.0000000000000000
  0.0000000000000000  0.0000000000000000  1.0000000000000000  0.0000000000000000
  0.0000000000000000  0.0000000000000000  0.0000000000000000  1.0000000000000000
* d-type functions
    7    4
       37.7133847230
       10.6929311840
        3.6728446990
        1.3588590303
     4921.3295253e-4
     1633.0520653e-4
        0.0540000000
  0.0115138350920000  0.0000000000000000  0.0000000000000000  0.0000000000000000
  0.0672463439960000  0.0000000000000000  0.0000000000000000  0.0000000000000000
  0.2148420777500000  0.0000000000000000  0.0000000000000000  0.0000000000000000
  0.3889089277900000  0.0000000000000000  0.0000000000000000  0.0000000000000000
  0.0000000000000000  0.4304083524300000  0.0000000000000000  0.0000000000000000
  0.0000000000000000  0.0000000000000000  0.2325330546500000  0.0000000000000000
  0.0000000000000000  0.0000000000000000  0.0000000000000000  1.0000000000000000
* f-type functions
    1    1
        0.5620000000
  1.0000000000000000

/V.def2-TZVP.Weigend.17s11p7d1f.6s4p4d1f.
F. Weigend, R. Ahlrichs. Phys. Chem. Chem. Phys. 7 (2005) 3297. doi:10.1039/b508541a
VANADIUM (17s,11p,7d,1f) -> [6s,4p,4d,1f]
    23.0   3
* s-type functions
   17    6
   232340.6505800000
    34828.8411700000
     7926.5448691000
     2243.7733046000
      730.5932294400
      262.3221963100
      101.7040380500
       40.0647846170
      255.2401496800
       78.8046469610
       12.3405989460
        5.1742019219
        7.6513894469
        1.2639759898
     5386.1761721e-4
     9271.9296124e-5
     3499.8055176e-5
  0.0002307241009200  0.0000000000000000  0.0000000000000000  0.0000000000000000  0.0000000000000000  0.0000000000000000
  0.0017888178962000  0.0000000000000000  0.0000000000000000  0.0000000000000000  0.0000000000000000  0.0000000000000000
  0.0092992490131000  0.0000000000000000  0.0000000000000000  0.0000000000000000  0.0000000000000000  0.0000000000000000
  0.0377614633470000  0.0000000000000000  0.0000000000000000  0.0000000000000000  0.0000000000000000  0.0000000000000000
  0.1225590966200000  0.0000000000000000  0.0000000000000000  0.0000000000000000  0.0000000000000000  0.0000000000000000
  0.2896350881100000  0.0000000000000000  0.0000000000000000  0.0000000000000000  0.0000000000000000  0.0000000000000000
  0.4100470295500000  0.0000000000000000  0.0000000000000000  0.0000000000000000  0.0000000000000000  0.0000000000000000
  0.2111361085800000  0.0000000000000000  0.0000000000000000  0.0000000000000000  0.0000000000000000  0.0000000000000000
  0.0000000000000000 -0.0244581163380000  0.0000000000000000  0.0000000000000000  0.0000000000000000  0.0000000000000000
  0.0000000000000000 -0.1152720536600000  0.0000000000000000  0.0000000000000000  0.0000000000000000  0.0000000000000000
  0.0000000000000000  0.5517474945300000  0.0000000000000000  0.0000000000000000  0.0000000000000000  0.0000000000000000
  0.0000000000000000  0.5450452848900000  0.0000000000000000  0.0000000000000000  0.0000000000000000  0.0000000000000000
  0.0000000000000000  0.0000000000000000 -0.2296763828600000  0.0000000000000000  0.0000000000000000  0.0000000000000000
  0.0000000000000000  0.0000000000000000  0.7168376907700000  0.0000000000000000  0.0000000000000000  0.0000000000000000
  0.0000000000000000  0.0000000000000000  0.0000000000000000  1.0000000000000000  0.0000000000000000  0.0000000000000000
  0.0000000000000000  0.0000000000000000  0.0000000000000000  0.0000000000000000  1.0000000000000000  0.0000000000000000
  0.0000000000000000  0.0000000000000000  0.0000000000000000  0.0000000000000000  0.0000000000000000  1.0000000000000000
* p-type functions
   11    4
     1184.2369151000
      280.2307519200
       89.6436271370
       33.2424112530
       13.1445144520
        5.2948534140
       20.1755868510
        2.7605865197
        1.1008900902
     4201.3310739e-4
        0.1112480000
  0.0024449826729000  0.0000000000000000  0.0000000000000000  0.0000000000000000
  0.0196434544660000  0.0000000000000000  0.0000000000000000  0.0000000000000000
  0.0907969491900000  0.0000000000000000  0.0000000000000000  0.0000000000000000
  0.2565076822200000  0.0000000000000000  0.0000000000000000  0.0000000000000000
  0.4081539375000000  0.0000000000000000  0.0000000000000000  0.0000000000000000
  0.2386037826800000  0.0000000000000000  0.0000000000000000  0.0000000000000000
  0.0000000000000000 -0.0282414890230000  0.0000000000000000  0.0000000000000000
  0.0000000000000000  0.5557463561900000  0.0000000000000000  0.0000000000000000
  0.0000000000000000  0.9931991927000000  0.0000000000000000  0.0000000000000000
  0.0000000000000000  0.0000000000000000  1.0000000000000000  0.0000000000000000
  0.0000000000000000  0.0000000000000000  0.0000000000000000  1.0000000000000000
* d-type functions
    7    4
       43.8611348640
       12.5160218910
        4.3313854957
        1.6138855773
     5874.9573961e-4
     1951.5723011e-4
        0.0650000000
  0.0114871742380000  0.0000000000000000  0.0000000000000000  0.0000000000000000
  0.0682471539770000  0.0000000000000000  0.0000000000000000  0.0000000000000000
  0.2183778419500000  0.0000000000000000  0.0000000000000000  0.0000000000000000
  0.3924521229600000  0.0000000000000000  0.0000000000000000  0.0000000000000000
  0.0000000000000000  0.4263446678600000  0.0000000000000000  0.0000000000000000
  0.0000000000000000  0.0000000000000000  0.2264656260100000  0.0000000000000000
  0.0000000000000000  0.0000000000000000  0.0000000000000000  1.0000000000000000
* f-type functions
    1    1
        0.8310000000
  1.0000000000000000

/Cr.def2-TZVP.Weigend.17s11p7d1f.6s4p4d1f.
F. Weigend, R. Ahlrichs. Phys. Chem. Chem. Phys. 7 (2005) 3297. doi:10.1039/b508541a
CHROMIUM (17s,11p,7d,1f) -> [6s,4p,4d,1f]
    24.0   3
* s-type functions
   17    6
   254477.8070400000
    38131.7970540000
     8675.2930607000
     2455.0099848000
      799.1621778700
      286.9002148900
      111.2541323200
       43.8641526360
      279.3266917300
       86.2747323760
       13.5557561130
        5.6978112751
        8.5636582615
        1.3988296768
     5728.8171116e-4
     9009.6171317e-5
     3412.5885135e-5
  0.0002338694569300  0.0000000000000000  0.0000000000000000  0.0000000000000000  0.0000000000000000  0.0000000000000000
  0.0018142601800000  0.0000000000000000  0.0000000000000000  0.0000000000000000  0.0000000000000000  0.0000000000000000
  0.0094363925721000  0.0000000000000000  0.0000000000000000  0.0000000000000000  0.0000000000000000  0.0000000000000000
  0.0383436393670000  0.0000000000000000  0.0000000000000000  0.0000000000000000  0.0000000000000000  0.0000000000000000
  0.1245919483700000  0.0000000000000000  0.0000000000000000  0.0000000000000000  0.0000000000000000  0.0000000000000000
  0.2948969602900000  0.0000000000000000  0.0000000000000000  0.0000000000000000  0.0000000000000000  0.0000000000000000
  0.4184614960700000  0.0000000000000000  0.0000000000000000  0.0000000000000000  0.0000000000000000  0.0000000000000000
  0.2163376342000000  0.0000000000000000  0.0000000000000000  0.0000000000000000  0.0000000000000000  0.0000000000000000
  0.0000000000000000 -0.0234509081110000  0.0000000000000000  0.0000000000000000  0.0000000000000000  0.0000000000000000
  0.0000000000000000 -0.1108037002700000  0.0000000000000000  0.0000000000000000  0.0000000000000000  0.0000000000000000
  0.0000000000000000  0.5302896584200000  0.0000000000000000  0.0000000000000000  0.0000000000000000  0.0000000000000000
  0.0000000000000000  0.5160351694700000  0.0000000000000000  0.0000000000000000  0.0000000000000000  0.0000000000000000
  0.0000000000000000  0.0000000000000000 -0.3810954567500000  0.0000000000000000  0.0000000000000000  0.0000000000000000
  0.0000000000000000  0.0000000000000000  1.1991591436000000  0.0000000000000000  0.0000000000000000  0.0000000000000000
  0.0000000000000000  0.0000000000000000  0.0000000000000000  1.0000000000000000  0.0000000000000000  0.0000000000000000
  0.0000000000000000  0.0000000000000000  0.0000000000000000  0.0000000000000000  1.0000000000000000  0.0000000000000000
  0.0000000000000000  0.0000000000000000  0.0000000000000000  0.0000000000000000  0.0000000000000000  1.0000000000000000
* p-type functions
   11    4
     1306.4398864000
      309.2531144100
       98.9962739630
       36.7569164510
       14.5666570770
        5.8739937432
       22.8909996950
        3.0855001822
        1.2132329118
     4493.1680699e-4
        0.1206750000
  0.0024277326185000  0.0000000000000000  0.0000000000000000  0.0000000000000000
  0.0195440410170000  0.0000000000000000  0.0000000000000000  0.0000000000000000
  0.0906517945530000  0.0000000000000000  0.0000000000000000  0.0000000000000000
  0.2569927915400000  0.0000000000000000  0.0000000000000000  0.0000000000000000
  0.4093550489100000  0.0000000000000000  0.0000000000000000  0.0000000000000000
  0.2372938884900000  0.0000000000000000  0.0000000000000000  0.0000000000000000
  0.0000000000000000 -0.0281660266130000  0.0000000000000000  0.0000000000000000
  0.0000000000000000  0.5603412014800000  0.0000000000000000  0.0000000000000000
  0.0000000000000000  0.9811901965000000  0.0000000000000000  0.0000000000000000
  0.0000000000000000  0.0000000000000000  1.0000000000000000  0.0000000000000000
  0.0000000000000000  0.0000000000000000  0.0000000000000000  1.0000000000000000
* d-type functions
    7    4
       43.7200744760
       12.3912426520
        4.2639442006
        1.5525221790
     5376.1929485e-4
     1649.3173074e-4
        0.0510000000
  0.0136229640260000  0.0000000000000000  0.0000000000000000  0.0000000000000000
  0.0789351801330000  0.0000000000000000  0.0000000000000000  0.0000000000000000
  0.2383384000000000  0.0000000000000000  0.0000000000000000  0.0000000000000000
  0.3952685112200000  0.0000000000000000  0.0000000000000000  0.0000000000000000
  0.0000000000000000  0.4106171705600000  0.0000000000000000  0.0000000000000000
  0.0000000000000000  0.0000000000000000  0.2444041079500000  0.0000000000000000
  0.0000000000000000  0.0000000000000000  0.0000000000000000  1.0000000000000000
* f-type functions
    1    1
        1.1470000000
  1.0000000000000000

/Mn.def2-TZVP.Weigend.17s11p7d1f.6s4p4d1f.
F. Weigend, R. Ahlrichs. Phys. Chem. Chem. Phys. 7 (2005) 3297. doi:10.1039/b508541a
MANGANESE (17s,11p,7d,1f) -> [6s,4p,4d,1f]
    25.0   3
* s-type functions
   17    6
   277185.0015300000
    41550.7698900000
     9455.9700152000
     2676.5206482000
      871.4668753000
      312.9830642000
      121.4445405100
       47.9225988290
      303.6672316300
       93.8814031870
       14.8794212140
        6.2865200745
        9.4858591337
        1.5698706158
     6590.3213608e-4
     1068.6292371e-4
     3926.7435433e-5
  0.0002283838513300  0.0000000000000000  0.0000000000000000  0.0000000000000000  0.0000000000000000  0.0000000000000000
  0.0017707650375000  0.0000000000000000  0.0000000000000000  0.0000000000000000  0.0000000000000000  0.0000000000000000
  0.0092077209994000  0.0000000000000000  0.0000000000000000  0.0000000000000000  0.0000000000000000  0.0000000000000000
  0.0374159718250000  0.0000000000000000  0.0000000000000000  0.0000000000000000  0.0000000000000000  0.0000000000000000
  0.1216486142600000  0.0000000000000000  0.0000000000000000  0.0000000000000000  0.0000000000000000  0.0000000000000000
  0.2882439249900000  0.0000000000000000  0.0000000000000000  0.0000000000000000  0.0000000000000000  0.0000000000000000
  0.4104160084700000  0.0000000000000000  0.0000000000000000  0.0000000000000000  0.0000000000000000  0.0000000000000000
  0.2137237514500000  0.0000000000000000  0.0000000000000000  0.0000000000000000  0.0000000000000000  0.0000000000000000
  0.0000000000000000 -0.0245899261400000  0.0000000000000000  0.0000000000000000  0.0000000000000000  0.0000000000000000
  0.0000000000000000 -0.1160260803800000  0.0000000000000000  0.0000000000000000  0.0000000000000000  0.0000000000000000
  0.0000000000000000  0.5511205967700000  0.0000000000000000  0.0000000000000000  0.0000000000000000  0.0000000000000000
  0.0000000000000000  0.5370756075600000  0.0000000000000000  0.0000000000000000  0.0000000000000000  0.0000000000000000
  0.0000000000000000  0.0000000000000000 -0.2288926269500000  0.0000000000000000  0.0000000000000000  0.0000000000000000
  0.0000000000000000  0.0000000000000000  0.7119616958700000  0.0000000000000000  0.0000000000000000  0.0000000000000000
  0.0000000000000000  0.0000000000000000  0.0000000000000000  1.0000000000000000  0.0000000000000000  0.0000000000000000
  0.0000000000000000  0.0000000000000000  0.0000000000000000  0.0000000000000000  1.0000000000000000  0.0000000000000000
  0.0000000000000000  0.0000000000000000  0.0000000000000000  0.0000000000000000  0.0000000000000000  1.0000000000000000
* p-type functions
   11    4
     1444.7978182000
      342.0655119700
      109.5840089100
       40.7479881730
       16.1886265660
        6.5484505964
       25.3570864370
        3.4830168782
        1.3858800906
     5255.5094893e-4
        0.1276500000
  0.0023994136455000  0.0000000000000000  0.0000000000000000  0.0000000000000000
  0.0193692868640000  0.0000000000000000  0.0000000000000000  0.0000000000000000
  0.0902361089880000  0.0000000000000000  0.0000000000000000  0.0000000000000000
  0.2574546785100000  0.0000000000000000  0.0000000000000000  0.0000000000000000
  0.4127235195800000  0.0000000000000000  0.0000000000000000  0.0000000000000000
  0.2408770000700000  0.0000000000000000  0.0000000000000000  0.0000000000000000
  0.0000000000000000 -0.0287071740580000  0.0000000000000000  0.0000000000000000
  0.0000000000000000  0.5520810071200000  0.0000000000000000  0.0000000000000000
  0.0000000000000000  0.9722690137900000  0.0000000000000000  0.0000000000000000
  0.0000000000000000  0.0000000000000000  1.0000000000000000  0.0000000000000000
  0.0000000000000000  0.0000000000000000  0.0000000000000000  1.0000000000000000
* d-type functions
    7    4
       56.5631891190
       16.2787347110
        5.6964273914
        2.1411147942
     7829.1801938e-4
     2595.2311214e-4
        0.0860000000
  0.0115432452945320  0.0000000000000000  0.0000000000000000  0.0000000000000000
  0.0702998459871960  0.0000000000000000  0.0000000000000000  0.0000000000000000
  0.2245077082129500  0.0000000000000000  0.0000000000000000  0.0000000000000000
  0.3970306543422600  0.0000000000000000  0.0000000000000000  0.0000000000000000
  0.0000000000000000  0.4194103916537500  0.0000000000000000  0.0000000000000000
  0.0000000000000000  0.0000000000000000  0.2188726167274300  0.0000000000000000
  0.0000000000000000  0.0000000000000000  0.0000000000000000  1.0000000000000000
* f-type functions
    1    1
        1.3260000000
  1.0000000000000000

/Fe.def2-TZVP.Weigend.17s11p7d1f.6s4p4d1f.
F. Weigend, R. Ahlrichs. Phys. Chem. Chem. Phys. 7 (2005) 3297. doi:10.1039/b508541a
IRON (17s,11p,7d,1f) -> [6s,4p,4d,1f]
    26.0   3
* s-type functions
   17    6
   300784.8463700000
    45088.9705570000
    10262.5163170000
     2905.2897293000
      946.1148713700
      339.8783289400
      131.9442558800
       52.1114940770
      329.4883926700
      101.9233273900
       16.2404627450
        6.8840675801
       10.4706937820
        1.7360039648
     7257.7288979e-4
     1159.5528203e-4
     4196.8227746e-5
  0.0002280627309600  0.0000000000000000  0.0000000000000000  0.0000000000000000  0.0000000000000000  0.0000000000000000
  0.0017681788761000  0.0000000000000000  0.0000000000000000  0.0000000000000000  0.0000000000000000  0.0000000000000000
  0.0091927083490000  0.0000000000000000  0.0000000000000000  0.0000000000000000  0.0000000000000000  0.0000000000000000
  0.0373554958070000  0.0000000000000000  0.0000000000000000  0.0000000000000000  0.0000000000000000  0.0000000000000000
  0.1215110842600000  0.0000000000000000  0.0000000000000000  0.0000000000000000  0.0000000000000000  0.0000000000000000
  0.2881888146800000  0.0000000000000000  0.0000000000000000  0.0000000000000000  0.0000000000000000  0.0000000000000000
  0.4112661267700000  0.0000000000000000  0.0000000000000000  0.0000000000000000  0.0000000000000000  0.0000000000000000
  0.2151858357300000  0.0000000000000000  0.0000000000000000  0.0000000000000000  0.0000000000000000  0.0000000000000000
  0.0000000000000000 -0.0247452164770000  0.0000000000000000  0.0000000000000000  0.0000000000000000  0.0000000000000000
  0.0000000000000000 -0.1168308905000000  0.0000000000000000  0.0000000000000000  0.0000000000000000  0.0000000000000000
  0.0000000000000000  0.5529362113600000  0.0000000000000000  0.0000000000000000  0.0000000000000000  0.0000000000000000
  0.0000000000000000  0.5360164018200000  0.0000000000000000  0.0000000000000000  0.0000000000000000  0.0000000000000000
  0.0000000000000000  0.0000000000000000 -0.2291270857700000  0.0000000000000000  0.0000000000000000  0.0000000000000000
  0.0000000000000000  0.0000000000000000  0.7115931998400000  0.0000000000000000  0.0000000000000000  0.0000000000000000
[...]
 2,     3.81196300,   -16.19029100 ;
  6 ;
 2,    10.24179000,    72.27689700 ;
 2,     8.92417600,   144.59108300 ;
 2,     6.58134200,     4.75869300 ;
 2,     6.25540300,     9.94062100 ;
 2,     3.88751200,   -12.20989200 ;
 2,     3.81196300,   -16.19029100 ;
  6 ;
 2,     7.75433600,    35.84850700 ;
 2,     7.72028100,    53.72434200 ;
 2,     4.97026400,    10.11525600 ;
 2,     4.56378900,    14.83373100 ;
 2,     3.88751200,   -12.20989200 ;
 2,     3.81196300,   -16.19029100 ;
Spectral Representation Operator
End of Spectral Representation Operator

/Bi.def2-TZVP.Metz.10s9p8d2f.6s5p3d2f.ECP.23el.
B. Metz, H. Stoll, M. Dolg. J. Chem. Phys. 113 (2000) 2563-2569. doi:10.1063/1.1305880
BISMUTH (10s,9p,8d,2f) -> [6s,5p,3d,2f]
    23.0   3
* s-type functions
   10    6
      716.4143531000
       83.8060590470
       21.1169628530
       15.4914481870
       23.2398550290
        6.6474255000
        1.7617744005
        0.8725286600
     2561.8895997e-4
     9707.3913006e-5
  0.0003125430713300  0.0000000000000000  0.0000000000000000  0.0000000000000000  0.0000000000000000  0.0000000000000000
  0.0017624768946000  0.0000000000000000  0.0000000000000000  0.0000000000000000  0.0000000000000000  0.0000000000000000
 -0.2191098343700000  0.0000000000000000  0.0000000000000000  0.0000000000000000  0.0000000000000000  0.0000000000000000
  0.4041122493100000  0.0000000000000000  0.0000000000000000  0.0000000000000000  0.0000000000000000  0.0000000000000000
  0.0000000000000000 -0.0682557586850000  0.0000000000000000  0.0000000000000000  0.0000000000000000  0.0000000000000000
  0.0000000000000000  0.9788804647100000  0.0000000000000000  0.0000000000000000  0.0000000000000000  0.0000000000000000
  0.0000000000000000  0.0000000000000000  1.0000000000000000  0.0000000000000000  0.0000000000000000  0.0000000000000000
  0.0000000000000000  0.0000000000000000  0.0000000000000000  1.0000000000000000  0.0000000000000000  0.0000000000000000
  0.0000000000000000  0.0000000000000000  0.0000000000000000  0.0000000000000000  1.0000000000000000  0.0000000000000000
  0.0000000000000000  0.0000000000000000  0.0000000000000000  0.0000000000000000  0.0000000000000000  1.0000000000000000
* p-type functions
    9    5
       15.2496446690
       14.8461760530
        7.0636826784
        2.5881255616
        1.5020208499
     7673.2724388e-4
     3279.7648982e-4
     1382.0335991e-4
     5513.7330969e-5
  0.7456035600000000  0.0000000000000000  0.0000000000000000  0.0000000000000000  0.0000000000000000
 -0.8557863733800000  0.0000000000000000  0.0000000000000000  0.0000000000000000  0.0000000000000000
  0.4014915959200000  0.0000000000000000  0.0000000000000000  0.0000000000000000  0.0000000000000000
  0.0000000000000000  0.3554272963300000  0.0000000000000000  0.0000000000000000  0.0000000000000000
  0.0000000000000000  0.6397699189000000  0.0000000000000000  0.0000000000000000  0.0000000000000000
  0.0000000000000000  0.3233277383900000  0.0000000000000000  0.0000000000000000  0.0000000000000000
  0.0000000000000000  0.0000000000000000  1.0000000000000000  0.0000000000000000  0.0000000000000000
  0.0000000000000000  0.0000000000000000  0.0000000000000000  1.0000000000000000  0.0000000000000000
  0.0000000000000000  0.0000000000000000  0.0000000000000000  0.0000000000000000  1.0000000000000000
* d-type functions
    8    3
       66.4044819480
       13.8584269610
        7.0654519000
        2.5252144035
        1.3419585000
        0.6834094100
        0.3293475542
        0.1400000000
  0.0003810287834800  0.0000000000000000  0.0000000000000000
  0.0107461524420000  0.0000000000000000  0.0000000000000000
 -0.0719476468450000  0.0000000000000000  0.0000000000000000
  0.2619597498900000  0.0000000000000000  0.0000000000000000
  0.4259475000000000  0.0000000000000000  0.0000000000000000
  0.3368032562700000  0.0000000000000000  0.0000000000000000
  0.0000000000000000  1.0000000000000000  0.0000000000000000
  0.0000000000000000  0.0000000000000000  1.0000000000000000
* f-type functions
    2    2
        0.3127100000
        1.0500000000
  1.0000000000000000  0.0000000000000000
  0.0000000000000000  1.0000000000000000
PP, Bi, 60, 3 ;
  2 ;
 2,     4.21454600,    13.71338300 ;
 2,     4.13340000,    18.19430800 ;
  4 ;
 2,    13.04309000,   283.26422700 ;
 2,     8.22168200,    62.47195900 ;
 2,     4.21454600,   -13.71338300 ;
 2,     4.13340000,   -18.19430800 ;
  6 ;
 2,    10.46777700,    72.00149900 ;
 2,     9.11890100,   144.00227700 ;
 2,     6.75479100,     5.00794500 ;
 2,     6.25259200,     9.99155000 ;
 2,     4.21454600,   -13.71338300 ;
 2,     4.13340000,   -18.19430800 ;
  6 ;
 2,     8.08147400,    36.39625900 ;
 2,     7.89059500,    54.59766400 ;
 2,     4.95555600,     9.98429400 ;
 2,     4.70455900,    14.98148500 ;
 2,     4.21454600,   -13.71338300 ;
 2,     4.13340000,   -18.19430800 ;
Spectral Representation Operator
End of Spectral Representation Operator

/Po.def2-TZVP.Peterson.11s10p8d2f.6s5p3d2f.ECP.24el.
K.A. Peterson, D. Figgen, E. Goll, H. Stoll, M. Dolg. J. Chem. Phys. 119 (2003) 11113-11123. doi:10.1063/1.1622924
POLONIUM (11s,10p,8d,2f) -> [6s,5p,3d,2f]
    24.0   3
* s-type functions
   11    6
     6744.8211765000
      744.4189253200
      131.0402930900
       19.6620210300
       16.6230256090
       23.0940029650
        6.9707398381
        1.8497377593
     9308.2999263e-4
     2867.3026462e-4
     1097.9212169e-4
  0.0000768915563630  0.0000000000000000  0.0000000000000000  0.0000000000000000  0.0000000000000000  0.0000000000000000
  0.0007128482735400  0.0000000000000000  0.0000000000000000  0.0000000000000000  0.0000000000000000  0.0000000000000000
  0.0022057583958000  0.0000000000000000  0.0000000000000000  0.0000000000000000  0.0000000000000000  0.0000000000000000
 -0.6436471374400000  0.0000000000000000  0.0000000000000000  0.0000000000000000  0.0000000000000000  0.0000000000000000
  0.9199715054600000  0.0000000000000000  0.0000000000000000  0.0000000000000000  0.0000000000000000  0.0000000000000000
  0.0000000000000000 -0.0704044101770000  0.0000000000000000  0.0000000000000000  0.0000000000000000  0.0000000000000000
  0.0000000000000000  0.9788654008600000  0.0000000000000000  0.0000000000000000  0.0000000000000000  0.0000000000000000
  0.0000000000000000  0.0000000000000000  1.0000000000000000  0.0000000000000000  0.0000000000000000  0.0000000000000000
  0.0000000000000000  0.0000000000000000  0.0000000000000000  1.0000000000000000  0.0000000000000000  0.0000000000000000
  0.0000000000000000  0.0000000000000000  0.0000000000000000  0.0000000000000000  1.0000000000000000  0.0000000000000000
  0.0000000000000000  0.0000000000000000  0.0000000000000000  0.0000000000000000  0.0000000000000000  1.0000000000000000
* p-type functions
   10    5
      253.9902449700
        9.8712718748
        7.4489893496
        8.9027395407
        5.7414667465
        1.9896329823
     9470.3210822e-4
        0.3707113628
     1555.4706086e-4
     6117.3720818e-5
  0.0000838763621160  0.0000000000000000  0.0000000000000000  0.0000000000000000  0.0000000000000000
  0.2457271045800000  0.0000000000000000  0.0000000000000000  0.0000000000000000  0.0000000000000000
 -0.4429776366100000  0.0000000000000000  0.0000000000000000  0.0000000000000000  0.0000000000000000
  0.0000000000000000 -0.1379825044500000  0.0000000000000000  0.0000000000000000  0.0000000000000000
  0.0000000000000000  0.2630400532600000  0.0000000000000000  0.0000000000000000  0.0000000000000000
  0.0000000000000000  0.6622584616100000  0.0000000000000000  0.0000000000000000  0.0000000000000000
  0.0000000000000000  0.3954705189200000  0.0000000000000000  0.0000000000000000  0.0000000000000000
  0.0000000000000000  0.0000000000000000  1.0000000000000000  0.0000000000000000  0.0000000000000000
  0.0000000000000000  0.0000000000000000  0.0000000000000000  1.0000000000000000  0.0000000000000000
  0.0000000000000000  0.0000000000000000  0.0000000000000000  0.0000000000000000  1.0000000000000000
* d-type functions
    8    3
       67.9430770460
       14.9142198940
        7.2973948305
        2.6826784400
        1.4374143009
     7390.3797417e-4
     3583.8153281e-4
        0.1500000000
  0.0004891912533600  0.0000000000000000  0.0000000000000000
  0.0101571207760000  0.0000000000000000  0.0000000000000000
 -0.0699432630660000  0.0000000000000000  0.0000000000000000
  0.2624473068000000  0.0000000000000000  0.0000000000000000
  0.4270236149400000  0.0000000000000000  0.0000000000000000
  0.3250243547700000  0.0000000000000000  0.0000000000000000
  0.0000000000000000  1.0000000000000000  0.0000000000000000
  0.0000000000000000  0.0000000000000000  1.0000000000000000
* f-type functions
    2    2
        0.3327500000
        1.4000000000
  1.0000000000000000  0.0000000000000000
  0.0000000000000000  1.0000000000000000
PP, Po, 60, 3 ;
  4 ;
 2,     5.01327000,    17.42829500 ;
 2,     4.98464000,    23.38035300 ;
 2,     1.32676000,     0.16339200 ;
 2,     1.52875800,     0.32456600 ;
  6 ;
 2,    13.27722700,   283.24470600 ;
 2,     8.39951800,    62.39646100 ;
 2,     5.01327000,   -17.42829500 ;
 2,     4.98464000,   -23.38035300 ;
 2,     1.32676000,    -0.16339200 ;
 2,     1.52875800,    -0.32456600 ;
  8 ;
 2,    10.66568200,    71.99171600 ;
 2,     9.28375300,   143.97187100 ;
 2,     6.87274900,     4.94961500 ;
 2,     6.32615000,     9.74049900 ;
 2,     5.01327000,   -17.42829500 ;
 2,     4.98464000,   -23.38035300 ;
 2,     1.32676000,    -0.16339200 ;
 2,     1.52875800,    -0.32456600 ;
  8 ;
 2,     8.21486600,    36.37838300 ;
 2,     8.00869600,    54.56271500 ;
 2,     5.05522700,     9.88949900 ;
 2,     4.78255300,    14.69387700 ;
 2,     5.01327000,   -17.42829500 ;
 2,     4.98464000,   -23.38035300 ;
 2,     1.32676000,    -0.16339200 ;
 2,     1.52875800,    -0.32456600 ;
Spectral Representation Operator
End of Spectral Representation Operator

/At.def2-TZVP.Peterson.11s10p8d2f.6s5p3d2f.ECP.25el.
K.A. Peterson, D. Figgen, E. Goll, H. Stoll, M. Dolg. J. Chem. Phys. 119 (2003) 11113-11123. doi:10.1063/1.1622924
ASTATINE (11s,10p,8d,2f) -> [6s,5p,3d,2f]
    25.0   3
* s-type functions
   11    6
     3635.9809356000
      537.6412982300
       91.6000307560
       20.2000058040
       16.8938738240
       18.1772169380
        7.2317852082
        1.9496199739
     9922.6695236e-4
     3195.7178881e-4
     1234.2539809e-4
  0.0001257146349400  0.0000000000000000  0.0000000000000000  0.0000000000000000  0.0000000000000000  0.0000000000000000
  0.0007595088382000  0.0000000000000000  0.0000000000000000  0.0000000000000000  0.0000000000000000  0.0000000000000000
  0.0025790982348000  0.0000000000000000  0.0000000000000000  0.0000000000000000  0.0000000000000000  0.0000000000000000
 -0.5477218769900000  0.0000000000000000  0.0000000000000000  0.0000000000000000  0.0000000000000000  0.0000000000000000
  0.7841750778600000  0.0000000000000000  0.0000000000000000  0.0000000000000000  0.0000000000000000  0.0000000000000000
  0.0000000000000000 -0.1302362700200000  0.0000000000000000  0.0000000000000000  0.0000000000000000  0.0000000000000000
  0.0000000000000000  0.9647356674700000  0.0000000000000000  0.0000000000000000  0.0000000000000000  0.0000000000000000
  0.0000000000000000  0.0000000000000000  1.0000000000000000  0.0000000000000000  0.0000000000000000  0.0000000000000000
  0.0000000000000000  0.0000000000000000  0.0000000000000000  1.0000000000000000  0.0000000000000000  0.0000000000000000
  0.0000000000000000  0.0000000000000000  0.0000000000000000  0.0000000000000000  1.0000000000000000  0.0000000000000000
  0.0000000000000000  0.0000000000000000  0.0000000000000000  0.0000000000000000  0.0000000000000000  1.0000000000000000
* p-type functions
   10    5
      216.8151892800
       10.5922981150
        7.4596585430
        8.9484156471
        5.9694592464
        2.1099088209
        1.0236370373
     4218.6356565e-4
     1775.7132268e-4
     6967.0886939e-5
  0.0001697529709000  0.0000000000000000  0.0000000000000000  0.0000000000000000  0.0000000000000000
  0.2268375579300000  0.0000000000000000  0.0000000000000000  0.0000000000000000  0.0000000000000000
 -0.4733684837700000  0.0000000000000000  0.0000000000000000  0.0000000000000000  0.0000000000000000
  0.0000000000000000 -0.1501295347500000  0.0000000000000000  0.0000000000000000  0.0000000000000000
  0.0000000000000000  0.2704814178800000  0.0000000000000000  0.0000000000000000  0.0000000000000000
  0.0000000000000000  0.6367121772200000  0.0000000000000000  0.0000000000000000  0.0000000000000000
  0.0000000000000000  0.3805747261500000  0.0000000000000000  0.0000000000000000  0.0000000000000000
  0.0000000000000000  0.0000000000000000  1.0000000000000000  0.0000000000000000  0.0000000000000000
  0.0000000000000000  0.0000000000000000  0.0000000000000000  1.0000000000000000  0.0000000000000000
  0.0000000000000000  0.0000000000000000  0.0000000000000000  0.0000000000000000  1.0000000000000000
* d-type functions
    8    3
       70.6196333930
       16.2120964780
        7.3607401479
        2.9309052592
        1.6085414823
     8419.4162715e-4
     4133.5677957e-4
        0.1740000000
  0.0005997402291400  0.0000000000000000  0.0000000000000000
  0.0093445952839000  0.0000000000000000  0.0000000000000000
 -0.0707484138970000  0.0000000000000000  0.0000000000000000
  0.2403736607700000  0.0000000000000000  0.0000000000000000
  0.4184137262400000  0.0000000000000000  0.0000000000000000
  0.3283265104400000  0.0000000000000000  0.0000000000000000
  0.0000000000000000  1.0000000000000000  0.0000000000000000
  0.0000000000000000  0.0000000000000000  1.0000000000000000
* f-type functions
    2    2
        0.3740800000
        1.8000000000
  1.0000000000000000  0.0000000000000000
  0.0000000000000000  1.0000000000000000
PP, At, 60, 3 ;
  4 ;
 2,     5.81216300,    19.87019800 ;
 2,     5.75371500,    26.41645200 ;
 2,     2.51347200,     0.99497000 ;
 2,     2.53626100,     1.49070100 ;
  7 ;
 2,    30.20083200,    49.95715800 ;
 2,    13.61230600,   283.21037100 ;
 2,     8.52934000,    62.28105200 ;
 2,     5.81216300,   -19.87019800 ;
 2,     5.75371500,   -26.41645200 ;
 2,     2.51347200,    -0.99497000 ;
 2,     2.53626100,    -1.49070100 ;
  8 ;
 2,    10.85406500,    71.98237100 ;
 2,     9.46822900,   143.90353200 ;
 2,     7.03111400,     4.87175900 ;
 2,     6.14385800,     8.98305900 ;
 2,     5.81216300,   -19.87019800 ;
 2,     5.75371500,   -26.41645200 ;
 2,     2.51347200,    -0.99497000 ;
 2,     2.53626100,    -1.49070100 ;
  8 ;
 2,     8.31351500,    36.36323700 ;
 2,     7.99896500,    54.54897000 ;
 2,     5.17996600,     9.77628500 ;
 2,     4.94222600,    14.26475500 ;
 2,     5.81216300,   -19.87019800 ;
 2,     5.75371500,   -26.41645200 ;
 2,     2.51347200,    -0.99497000 ;
 2,     2.53626100,    -1.49070100 ;
Spectral Representation Operator
End of Spectral Representation Operator

/Rn.def2-TZVP.Peterson.11s10p8d2f.6s5p3d2f.ECP.26el.
K.A. Peterson, D. Figgen, E. Goll, H. Stoll, M. Dolg. J. Chem. Phys. 119 (2003) 11113-11123. doi:10.1063/1.1622924
RADON (11s,10p,8d,2f) -> [6s,5p,3d,2f]
    26.0   3
* s-type functions
   11    6
     5187.7442468000
      768.1449120700
      159.3518206500
       21.8634327240
       18.3886899780
       24.8162264480
        7.2923301677
        2.0850437166
        1.0915245945
     3491.5708428e-4
     1364.8422952e-4
  0.0001609703484800  0.0000000000000000  0.0000000000000000  0.0000000000000000  0.0000000000000000  0.0000000000000000
  0.0010508214789000  0.0000000000000000  0.0000000000000000  0.0000000000000000  0.0000000000000000  0.0000000000000000
  0.0027375438093000  0.0000000000000000  0.0000000000000000  0.0000000000000000  0.0000000000000000  0.0000000000000000
 -0.5504590490500000  0.0000000000000000  0.0000000000000000  0.0000000000000000  0.0000000000000000  0.0000000000000000
  0.7832137392200000  0.0000000000000000  0.0000000000000000  0.0000000000000000  0.0000000000000000  0.0000000000000000
  0.0000000000000000 -0.0826367972040000  0.0000000000000000  0.0000000000000000  0.0000000000000000  0.0000000000000000
  0.0000000000000000  1.0926256000000000  0.0000000000000000  0.0000000000000000  0.0000000000000000  0.0000000000000000
  0.0000000000000000  0.0000000000000000  1.0000000000000000  0.0000000000000000  0.0000000000000000  0.0000000000000000
  0.0000000000000000  0.0000000000000000  0.0000000000000000  1.0000000000000000  0.0000000000000000  0.0000000000000000
  0.0000000000000000  0.0000000000000000  0.0000000000000000  0.0000000000000000  1.0000000000000000  0.0000000000000000
  0.0000000000000000  0.0000000000000000  0.0000000000000000  0.0000000000000000  0.0000000000000000  1.0000000000000000
* p-type functions
   10    5
      194.6891872300
       11.2100135250
        7.5298316489
        9.0845000304
        6.2631489717
        2.2545193734
        1.1180666918
     4744.4492594e-4
     2017.2354616e-4
     7950.3144392e-5
  0.0002626581404600  0.0000000000000000  0.0000000000000000  0.0000000000000000  0.0000000000000000
  0.1995230262100000  0.0000000000000000  0.0000000000000000  0.0000000000000000  0.0000000000000000
 -0.4599447956100000  0.0000000000000000  0.0000000000000000  0.0000000000000000  0.0000000000000000
  0.0000000000000000 -0.2309391742600000  0.0000000000000000  0.0000000000000000  0.0000000000000000
  0.0000000000000000  0.3974761419200000  0.0000000000000000  0.0000000000000000  0.0000000000000000
  0.0000000000000000  0.8302669383800000  0.0000000000000000  0.0000000000000000  0.0000000000000000
  0.0000000000000000  0.5146701311200000  0.0000000000000000  0.0000000000000000  0.0000000000000000
  0.0000000000000000  0.0000000000000000  1.0000000000000000  0.0000000000000000  0.0000000000000000
  0.0000000000000000  0.0000000000000000  0.0000000000000000  1.0000000000000000  0.0000000000000000
  0.0000000000000000  0.0000000000000000  0.0000000000000000  0.0000000000000000  1.0000000000000000
* d-type functions
    8    3
       75.3027236650
       17.9659138300
        7.3741298033
        3.2296258578
        1.7937840508
     9463.3319732e-4
     4686.0482223e-4
        0.2000000000
  0.0007359023842900  0.0000000000000000  0.0000000000000000
  0.0089490827389000  0.0000000000000000  0.0000000000000000
 -0.0766416636930000  0.0000000000000000  0.0000000000000000
  0.2297540460200000  0.0000000000000000  0.0000000000000000
  0.4399149531100000  0.0000000000000000  0.0000000000000000
  0.3525939519800000  0.0000000000000000  0.0000000000000000
  0.0000000000000000  1.0000000000000000  0.0000000000000000
  0.0000000000000000  0.0000000000000000  1.0000000000000000
* f-type functions
    2    2
        0.4180600000
        2.1000000000
  1.0000000000000000  0.0000000000000000
  0.0000000000000000  1.0000000000000000
PP, Rn, 60, 3 ;
  4 ;
 2,     6.34857100,    21.79729000 ;
 2,     6.29594900,    28.94680500 ;
 2,     2.88211800,     1.44736500 ;
 2,     2.90804800,     2.17796400 ;
  7 ;
 2,    30.15124200,    49.96555100 ;
 2,    14.52124100,   283.07000000 ;
 2,     8.05203800,    62.00287000 ;
 2,     6.34857100,   -21.79729000 ;
 2,     6.29594900,   -28.94680500 ;
 2,     2.88211800,    -1.44736500 ;
 2,     2.90804800,    -2.17796400 ;
  8 ;
 2,    11.00994200,    71.96911900 ;
 2,     9.61762500,   143.86055900 ;
 2,     7.33600800,     4.71476100 ;
 2,     6.40625300,     9.01306500 ;
 2,     6.34857100,   -21.79729000 ;
 2,     6.29594900,   -28.94680500 ;
 2,     2.88211800,    -1.44736500 ;
 2,     2.90804800,    -2.17796400 ;
  8 ;
 2,     8.36922000,    36.36836500 ;
 2,     8.11697500,    54.55176100 ;
 2,     5.35365600,     9.63448700 ;
 2,     5.09721200,    14.38790200 ;
 2,     6.34857100,   -21.79729000 ;
 2,     6.29594900,   -28.94680500 ;
 2,     2.88211800,    -1.44736500 ;
 2,     2.90804800,    -2.17796400 ;
Spectral Representation Operator
End of Spectral Representation Operator
