************************************************************************
* This file is part of OpenMolcas.                                     *
*                                                                      *
* OpenMolcas is free software; you can redistribute it and/or modify   *
* it under the terms of the GNU Lesser General Public License, v. 2.1. *
* OpenMolcas is distributed in the hope that it will be useful, but it *
* is provided "as is" and without any express or implied warranties.   *
* For more details see the full text of the license in the file        *
* LICENSE or in <http://www.gnu.org/licenses/>.                        *
************************************************************************
/Al.DZ..11s7p.6s4p.
 H. Horn, Aug. 91
AL       (11s7p) -> [6s4p]

	13.000000 1
* S-type functions
    11 6
        32386.381
        4858.4056
        1105.9177
        313.39239
        102.65495
        37.409873
        14.457878
        3.2405266
        1.1620812
        .17691170
        .65413993E-01
 .62662888E-03 0.0 0.0 0.0 0.0 0.0
 .48375973E-02 0.0 0.0 0.0 0.0 0.0
 .24705750E-01 0.0 0.0 0.0 0.0 0.0
 .94267148E-01 0.0 0.0 0.0 0.0 0.0
 .25654901 0.0 0.0 0.0 0.0 0.0
 0.0 .45465579 0.0 0.0 0.0 0.0
 0.0 .29587144 0.0 0.0 0.0 0.0
 0.0 0.0 1.0000000 0.0 0.0 0.0
 0.0 0.0 0.0 1.0000000 0.0 0.0
 0.0 0.0 0.0 0.0 1.0000000 0.0
 0.0 0.0 0.0 0.0 0.0 1.0000000
* P-type functions
    7 4
        145.67578
        33.847508
        10.413547
        3.5311030
        1.2051750
        .27188850
        .71464661E-01
 .10572490E-01 0.0 0.0 0.0
 .73099549E-01 0.0 0.0 0.0
 .25799051 0.0 0.0 0.0
 .47538177 0.0 0.0 0.0
 0.0 1.0000000 0.0 0.0
 0.0 0.0 1.0000000 0.0
 0.0 0.0 0.0 1.0000000

/Ar.DZ..11s7p.6s4p.
 H.Horn, Jan. 92
AR       (11s7p) -> [6s4p]

	18.000000 1
* S-type functions
    11 6
        63887.472828
        9583.7593589
        2181.7219111
        618.77695604
        203.66405413
        75.133884493
        29.523641372
        7.0236865832
        2.8378923141
        .66753250636
        .23653398697
 .60679393769E-03 0.0 0.0 0.0 0.0 0.0
 .46860480499E-02 0.0 0.0 0.0 0.0 0.0
 .23961838135E-01 0.0 0.0 0.0 0.0 0.0
 .91703485057E-01 0.0 0.0 0.0 0.0 0.0
 .25031342024 0.0 0.0 0.0 0.0 0.0
 0.0 .46264301013 0.0 0.0 0.0 0.0
 0.0 .32094773202 0.0 0.0 0.0 0.0
 0.0 0.0 1.0000000000 0.0 0.0 0.0
 0.0 0.0 0.0 1.0000000000 0.0 0.0
 0.0 0.0 0.0 0.0 1.0000000000 0.0
 0.0 0.0 0.0 0.0 0.0 1.0000000000
* P-type functions
    7 4
        332.06591997
        77.822111152
        24.336734690
        8.5477344907
        3.1621383978
        .85405481066
        .23833382586
 .10101877593E-01 0.0 0.0 0.0
 .72825457092E-01 0.0 0.0 0.0
 .27064490355 0.0 0.0 0.0
 .51824787980 0.0 0.0 0.0
 0.0 1.0000000000 0.0 0.0
 0.0 0.0 1.0000000000 0.0
 0.0 0.0 0.0 1.0000000000

/As.DZ..14s11p5d.8s6p2d.
 A. Schaefer, Feb. 92
AS       (14s11p5d) -> [8s6p2d]

	33.000000 2
* S-type functions
    14 8
        573690.51140
        85988.183455
        19571.474270
        5546.0309804
        1817.8361947
        668.63675492
        267.38795948
        109.41335253
        27.737766818
        12.238528675
        4.1265920360
        1.6835020306
        .29954009858
        .11318866642
 -.21423470465E-03 0.0 0.0 0.0 0.0 0.0 0.0 0.0
 -.16618749677E-02 0.0 0.0 0.0 0.0 0.0 0.0 0.0
 -.86561820675E-02 0.0 0.0 0.0 0.0 0.0 0.0 0.0
 -.35314044368E-01 0.0 0.0 0.0 0.0 0.0 0.0 0.0
 -.11523139395 0.0 0.0 0.0 0.0 0.0 0.0 0.0
 -.28192647128 0.0 0.0 0.0 0.0 0.0 0.0 0.0
 0.0 -.39133530320 0.0 0.0 0.0 0.0 0.0 0.0
 0.0 -.31052652260 0.0 0.0 0.0 0.0 0.0 0.0
 0.0 0.0 1.0000000000 0.0 0.0 0.0 0.0 0.0
 0.0 0.0 0.0 1.0000000000 0.0 0.0 0.0 0.0
 0.0 0.0 0.0 0.0 1.0000000000 0.0 0.0 0.0
 0.0 0.0 0.0 0.0 0.0 1.0000000000 0.0 0.0
 0.0 0.0 0.0 0.0 0.0 0.0 1.0000000000 0.0
 0.0 0.0 0.0 0.0 0.0 0.0 0.0 1.0000000000
* P-type functions
    11 6
        3425.0975358
        813.08797098
        264.28414769
        101.51263702
        42.722350677
        18.845113977
        8.2254455309
        3.4766363492
        1.4285918301
        .37149795090
        .11244760708
 -.14737377532E-02 0.0 0.0 0.0 0.0 0.0
 -.12201465931E-01 0.0 0.0 0.0 0.0 0.0
 -.58857336717E-01 0.0 0.0 0.0 0.0 0.0
 0.0 -.20573148845 0.0 0.0 0.0 0.0
 0.0 -.39286343807 0.0 0.0 0.0 0.0
 0.0 -.36196397606 0.0 0.0 0.0 0.0
 0.0 0.0 1.0000000000 0.0 0.0 0.0
 0.0 0.0 0.0 -.59644553415 0.0 0.0
 0.0 0.0 0.0 -.35023592364 0.0 0.0
 0.0 0.0 0.0 0.0 1.0000000000 0.0
 0.0 0.0 0.0 0.0 0.0 1.0000000000
* D-type functions
    5 2
        84.442621644
        24.188051726
        8.4037833603
        2.9811949434
        .97923123794
 .24520468921E-01 0.0
 .14110224322 0.0
 .36874385234 0.0
 .48410290060 0.0
 0.0 1.0000000000

/B.DZ..8s4p.4s2p.
 H. Horn, Aug. 91
B       (8s4p) -> [4s2p]

	5.000000 1
* S-type functions
    8 4
        2410.2061
        361.86992
        82.308593
        23.109942
        7.2517259
        2.3666469
        .35987078
        .11162889
 .17549915E-02 0.0 0.0 0.0
 .13436405E-01 0.0 0.0 0.0
 .66369025E-01 0.0 0.0 0.0
 .23025297 0.0 0.0 0.0
 .51498212 0.0 0.0 0.0
 0.0 1.0000000 0.0 0.0
 0.0 0.0 1.0000000 0.0
 0.0 0.0 0.0 1.0000000
* P-type functions
    4 2
        6.0017073
        1.2401097
        .33668024
        .95590862E-01
 -.35545320E-01 0.0
 -.19834505 0.0
 -.50478729 0.0
 0.0 1.0000000

/Be.DZ..8s.4s.
 A. Schaefer, Feb. 92
BE       (8s) -> [4s]

	4.000000 0
* S-type functions
    8 4
        1429.9977041
        214.72706466
        48.839314750
        13.697512092
        4.2820865621
        1.3937553677
        .19043990241
        .61813404832E-01
 .18225301440E-02 0.0 0.0 0.0
 .13929388301E-01 0.0 0.0 0.0
 .68290461508E-01 0.0 0.0 0.0
 .23188729242 0.0 0.0 0.0
 .49993168126 0.0 0.0 0.0
 0.0 1.0000000000 0.0 0.0
 0.0 0.0 1.0000000000 0.0
 0.0 0.0 0.0 1.0000000000

/Br.DZ..14s11p5d.8s6p2d.
 H.Horn, Feb. 1992
BR       (14s11p5d) -> [8s6p2d]

	35.000000 2
* S-type functions
    14 8
        646312.41039
        96873.038900
        22048.967574
        6248.3557482
        2048.7467977
        754.70826963
        302.69689103
        124.16866898
        31.544281070
        14.029435981
        4.9416679228
        2.0756618020
        .42101474441
        .16058114367
 .20844173405E-03 0.0 0.0 0.0 0.0 0.0 0.0 0.0
 .16169556764E-02 0.0 0.0 0.0 0.0 0.0 0.0 0.0
 .84224934763E-02 0.0 0.0 0.0 0.0 0.0 0.0 0.0
 .34360876797E-01 0.0 0.0 0.0 0.0 0.0 0.0 0.0
 .11206361063 0.0 0.0 0.0 0.0 0.0 0.0 0.0
 .27360431084 0.0 0.0 0.0 0.0 0.0 0.0 0.0
 0.0 .40561279803 0.0 0.0 0.0 0.0 0.0 0.0
 0.0 .32541501049 0.0 0.0 0.0 0.0 0.0 0.0
 0.0 0.0 1.0000000000 0.0 0.0 0.0 0.0 0.0
 0.0 0.0 0.0 1.0000000000 0.0 0.0 0.0 0.0
 0.0 0.0 0.0 0.0 1.0000000000 0.0 0.0 0.0
 0.0 0.0 0.0 0.0 0.0 1.0000000000 0.0 0.0
 0.0 0.0 0.0 0.0 0.0 0.0 1.0000000000 0.0
 0.0 0.0 0.0 0.0 0.0 0.0 0.0 1.0000000000
* P-type functions
    11 6
        3890.7181798
        923.85869493
        300.75537085
        115.96376914
        49.093271078
        21.810392052
        9.6190135611
        4.1341549028
        1.7549598851
        .52801532318
        .15604837959
 .15119787124E-02 0.0 0.0 0.0 0.0 0.0
 .12529302998E-01 0.0 0.0 0.0 0.0 0.0
 .60405586937E-01 0.0 0.0 0.0 0.0 0.0
 0.0 .21102288964 0.0 0.0 0.0 0.0
 0.0 .40341288321 0.0 0.0 0.0 0.0
 0.0 .37386481043 0.0 0.0 0.0 0.0
 0.0 0.0 1.0000000000 0.0 0.0 0.0
 0.0 0.0 0.0 .59931625011 0.0 0.0
 0.0 0.0 0.0 .33979400209 0.0 0.0
 0.0 0.0 0.0 0.0 1.0000000000 0.0
 0.0 0.0 0.0 0.0 0.0 1.0000000000
* D-type functions
    5 2
        104.85732970
        30.280080540
        10.651497127
        3.8705893430
        1.3242996938
 .22649313036E-01 0.0
 .13456249533 0.0
 .36469674660 0.0
 .49046476885 0.0
 0.0 1.0000000000

/C.DZ..8s4p.4s2p.
 H. Horn, Aug. 91
C       (8s4p) -> [4s2p]

	6.000000 1
* S-type functions
    8 4
        3623.8613
        544.04621
        123.74338
        34.763209
        10.933333
        3.5744765
        .57483245
        .17303640
 .16339191E-02 0.0 0.0 0.0
 .12521701E-01 0.0 0.0 0.0
 .62113914E-01 0.0 0.0 0.0
 .21817729 0.0 0.0 0.0
 .49800431 0.0 0.0 0.0
 0.0 1.0000000 0.0 0.0
 0.0 0.0 1.0000000 0.0
 0.0 0.0 0.0 1.0000000
* P-type functions
    4 2
        9.4432819
        2.0017986
        .54629718
        .15202684
 .37895451E-01 0.0
 .20818177 0.0
 .50474166 0.0
 0.0 1.0000000

/Ca.DZ..14s9p.8s5p.
 H. Horn, Feb. 92
CA       (14s9p) -> [8s5p]

	20.000000 1
* S-type functions
    14 8
        202698.95519
        30382.465915
        6915.0833150
        1959.0210984
        640.93602075
        233.97696836
        92.289198312
        37.254479906
        9.1319843289
        3.8177857927
        1.0493475069
        .42865991519
        .62822638980E-01
        .26016237865E-01
 .22296378333E-03 0.0 0.0 0.0 0.0 0.0 0.0 0.0
 .17293186572E-02 0.0 0.0 0.0 0.0 0.0 0.0 0.0
 .90022631781E-02 0.0 0.0 0.0 0.0 0.0 0.0 0.0
 .36669888420E-01 0.0 0.0 0.0 0.0 0.0 0.0 0.0
 .11940987210 0.0 0.0 0.0 0.0 0.0 0.0 0.0
 .29182526071 0.0 0.0 0.0 0.0 0.0 0.0 0.0
 0.0 .40441527991 0.0 0.0 0.0 0.0 0.0 0.0
 0.0 .29631288855 0.0 0.0 0.0 0.0 0.0 0.0
 0.0 0.0 1.0000000000 0.0 0.0 0.0 0.0 0.0
 0.0 0.0 0.0 1.0000000000 0.0 0.0 0.0 0.0
 0.0 0.0 0.0 0.0 1.0000000000 0.0 0.0 0.0
 0.0 0.0 0.0 0.0 0.0 1.0000000000 0.0 0.0
 0.0 0.0 0.0 0.0 0.0 0.0 1.0000000000 0.0
 0.0 0.0 0.0 0.0 0.0 0.0 0.0 1.0000000000
* P-type functions
    9 5
        1019.7607638
        241.59630759
        77.637012084
        29.115419425
        11.762593591
        4.9228924219
        1.9223257245
        .75796196942
        .28430199095
 -.20598575277E-02 0.0 0.0 0.0 0.0
 -.16650079815E-01 0.0 0.0 0.0 0.0
 -.77764602312E-01 0.0 0.0 0.0 0.0
 0.0 -.24180561237 0.0 0.0 0.0
 0.0 -.43257798682 0.0 0.0 0.0
 0.0 -.36732481536 0.0 0.0 0.0
 0.0 0.0 1.0000000000 0.0 0.0
 0.0 0.0 0.0 1.0000000000 0.0
 0.0 0.0 0.0 0.0 1.0000000000

/Cl.DZ..11s7p.6s4p.
 H. Horn, Aug. 91
CL       (11s7p) -> [6s4p]

	17.000000 1
* S-type functions
    11 6
        56684.838
        8503.3349
        1935.7459
        548.95093
        180.56372
        66.503343
        26.074159
        6.1597909
        2.4530894
        .55026285
        .19609318
 .68912930E-03 0.0 0.0 0.0 0.0 0.0
 .53215684E-02 0.0 0.0 0.0 0.0 0.0
 .27205430E-01 0.0 0.0 0.0 0.0 0.0
 .10405530 0.0 0.0 0.0 0.0 0.0
 .28378057 0.0 0.0 0.0 0.0 0.0
 0.0 .46220669 0.0 0.0 0.0 0.0
 0.0 .31745467 0.0 0.0 0.0 0.0
 0.0 0.0 1.0000000 0.0 0.0 0.0
 0.0 0.0 0.0 1.0000000 0.0 0.0
 0.0 0.0 0.0 0.0 1.0000000 0.0
 0.0 0.0 0.0 0.0 0.0 1.0000000
* P-type functions
    7 4
        293.05101
        68.618132
        21.418399
        7.4912517
        2.7386125
        .70840486
        .19755060
 .10641518E-01 0.0 0.0 0.0
 .76420111E-01 0.0 0.0 0.0
 .28335382 0.0 0.0 0.0
 .54501469 0.0 0.0 0.0
 0.0 1.0000000 0.0 0.0
 0.0 0.0 1.0000000 0.0
 0.0 0.0 0.0 1.0000000

/Co.DZ..14s9p5d.8s5p3d.
 H.Horn, Feb. 1992
CO       (14s9p5d) -> [8s5p3d]

	27.000000 2
* S-type functions
    14 8
        379411.77461
        56868.934396
        12943.608462
        3667.4532601
        1201.1404591
        440.33919478
        175.00035297
        71.190981549
        17.849007924
        7.7276070252
        2.3708060829
        .92628271613
        .11908620529
        .43782392241E-01
 -.21547910180E-03 0.0 0.0 0.0 0.0 0.0 0.0 0.0
 -.16714437766E-02 0.0 0.0 0.0 0.0 0.0 0.0 0.0
 -.87044472982E-02 0.0 0.0 0.0 0.0 0.0 0.0 0.0
 -.35496174518E-01 0.0 0.0 0.0 0.0 0.0 0.0 0.0
 -.11581023244 0.0 0.0 0.0 0.0 0.0 0.0 0.0
 -.28374608041 0.0 0.0 0.0 0.0 0.0 0.0 0.0
 0.0 -.38404172517 0.0 0.0 0.0 0.0 0.0 0.0
 0.0 -.29545416341 0.0 0.0 0.0 0.0 0.0 0.0
 0.0 0.0 1.0000000000 0.0 0.0 0.0 0.0 0.0
 0.0 0.0 0.0 1.0000000000 0.0 0.0 0.0 0.0
 0.0 0.0 0.0 0.0 1.0000000000 0.0 0.0 0.0
 0.0 0.0 0.0 0.0 0.0 1.0000000000 0.0 0.0
 0.0 0.0 0.0 0.0 0.0 0.0 1.0000000000 0.0
 0.0 0.0 0.0 0.0 0.0 0.0 0.0 1.0000000000
* P-type functions
    9 5
        2137.6007768
        506.97292174
        163.87524881
        62.151898991
        25.632331435
        11.020739027
        4.6024341479
        1.8102832176
        .66569223705
 -.19057939757E-02 0.0 0.0 0.0 0.0
 -.15678387875E-01 0.0 0.0 0.0 0.0
 -.75229629993E-01 0.0 0.0 0.0 0.0
 0.0 -.23369231380 0.0 0.0 0.0
 0.0 -.43693103212 0.0 0.0 0.0
 0.0 -.38210863080 0.0 0.0 0.0
 0.0 0.0 1.0000000000 0.0 0.0
 0.0 0.0 0.0 1.0000000000 0.0
 0.0 0.0 0.0 0.0 1.0000000000
* D-type functions
    5 3
        42.924372777
        11.940809601
        4.0037210467
        1.3412566852
        .40011241880
 .29754871320E-01 0.0 0.0
 .15885714484 0.0 0.0
 .38970617758 0.0 0.0
 0.0 .49652610549 0.0
 0.0 0.0 .32719932754

/Cr.DZ..14s9p5d.8s5p3d.
 H.Horn, Jan. 1992
CR       (14s9p5d) -> [8s5p3d]

	24.000000 2
* S-type functions
    14 8
        296910.38175
        44503.297981
        10129.083731
        2869.8125395
        939.52851828
        343.87667562
        136.27242081
        55.274935910
        13.753715065
        5.8893064458
        1.7366781917
        .67619018171
        .92187616038E-01
        .36120107071E-01
 .21631828095E-03 0.0 0.0 0.0 0.0 0.0 0.0 0.0
 .16778892320E-02 0.0 0.0 0.0 0.0 0.0 0.0 0.0
 .87367682069E-02 0.0 0.0 0.0 0.0 0.0 0.0 0.0
 .35614011193E-01 0.0 0.0 0.0 0.0 0.0 0.0 0.0
 .11612081564 0.0 0.0 0.0 0.0 0.0 0.0 0.0
 .28429365944 0.0 0.0 0.0 0.0 0.0 0.0 0.0
 0.0 .39618804755 0.0 0.0 0.0 0.0 0.0 0.0
 0.0 .29934143453 0.0 0.0 0.0 0.0 0.0 0.0
 0.0 0.0 1.0000000000 0.0 0.0 0.0 0.0 0.0
 0.0 0.0 0.0 1.0000000000 0.0 0.0 0.0 0.0
 0.0 0.0 0.0 0.0 1.0000000000 0.0 0.0 0.0
 0.0 0.0 0.0 0.0 0.0 1.0000000000 0.0 0.0
 0.0 0.0 0.0 0.0 0.0 0.0 1.0000000000 0.0
 0.0 0.0 0.0 0.0 0.0 0.0 0.0 1.0000000000
* P-type functions
    9 5
        1608.8743670
        381.42987006
        123.01926841
        46.446782128
        19.003494760
        8.0889965397
        3.3013703884
        1.2877624138
        .46546844260
 .19364463670E-02 0.0 0.0 0.0 0.0
 .15839007300E-01 0.0 0.0 0.0 0.0
 .75350154154E-01 0.0 0.0 0.0 0.0
 0.0 .23949451398 0.0 0.0 0.0
 0.0 .44099403119 0.0 0.0 0.0
 0.0 .38019975560 0.0 0.0 0.0
 0.0 0.0 1.0000000000 0.0 0.0
 0.0 0.0 0.0 1.0000000000 0.0
 0.0 0.0 0.0 0.0 1.0000000000
* D-type functions
    5 3
        27.546733731
        7.4647940726
        2.4327524296
        .78187817732
        .21977377631
 .30633260432E-01 0.0 0.0
 .15604065673 0.0 0.0
 .37003057780 0.0 0.0
 0.0 1.0000000000 0.0
 0.0 0.0 1.0000000000

/Cu.DZ..14s9p5d.8s5p3d.
 H.Horn, Feb. 1992
CU       (14s9p5d) -> [8s5p3d]

	29.000000 2
* S-type functions
    14 8
        441087.25070
        66112.021187
        15047.011425
        4263.4273084
        1396.3815797
        511.96055788
        203.45426948
        82.792337027
        20.854285634
        9.0410679584
        2.7518135173
        1.0434856515
        .11172292442
        .41041020330E-01
 -.21814173104E-03 0.0 0.0 0.0 0.0 0.0 0.0 0.0
 -.16921935882E-02 0.0 0.0 0.0 0.0 0.0 0.0 0.0
 -.88137131631E-02 0.0 0.0 0.0 0.0 0.0 0.0 0.0
 -.35954659517E-01 0.0 0.0 0.0 0.0 0.0 0.0 0.0
 -.11742970473 0.0 0.0 0.0 0.0 0.0 0.0 0.0
 -.28844267427 0.0 0.0 0.0 0.0 0.0 0.0 0.0
 0.0 -.42678898925 0.0 0.0 0.0 0.0 0.0 0.0
 0.0 -.33044128545 0.0 0.0 0.0 0.0 0.0 0.0
 0.0 0.0 1.0000000000 0.0 0.0 0.0 0.0 0.0
 0.0 0.0 0.0 1.0000000000 0.0 0.0 0.0 0.0
 0.0 0.0 0.0 0.0 1.0000000000 0.0 0.0 0.0
 0.0 0.0 0.0 0.0 0.0 1.0000000000 0.0 0.0
 0.0 0.0 0.0 0.0 0.0 0.0 1.0000000000 0.0
 0.0 0.0 0.0 0.0 0.0 0.0 0.0 1.0000000000
* P-type functions
    9 5
        2530.0965671
        600.09792954
        194.08204479
        73.671821377
        30.447369690
        13.122714875
        5.5214839972
        2.1457922130
        .76797488702
 .19137941259E-02 0.0 0.0 0.0 0.0
 .15797670964E-01 0.0 0.0 0.0 0.0
 .76271259615E-01 0.0 0.0 0.0 0.0
 0.0 .23881452309 0.0 0.0 0.0
 0.0 .44980015897 0.0 0.0 0.0
 0.0 .39337682391 0.0 0.0 0.0
 0.0 0.0 1.0000000000 0.0 0.0
 0.0 0.0 0.0 1.0000000000 0.0
 0.0 0.0 0.0 0.0 1.0000000000
* D-type functions
    5 3
        47.313743703
        13.154688449
        4.3662885749
        1.4122065936
        .38840713001
 .32399760431E-01 0.0 0.0
 .16822706530 0.0 0.0
 .38494429603 0.0 0.0
 0.0 1.0000000000 0.0
 0.0 0.0 1.0000000000

/F.DZ..8s4p.4s2p.
 H. Horn, Aug. 91
F       (8s4p) -> [4s2p]

	9.000000 1
* S-type functions
    8 4
        8709.5462
        1307.4134
        297.36441
        83.602154
        26.385121
        8.6499174
        1.5043291
        .43408405
 .13935739E-02 0.0 0.0 0.0
 .10695073E-01 0.0 0.0 0.0
 .53389308E-01 0.0 0.0 0.0
 .19112479 0.0 0.0 0.0
 .44987537 0.0 0.0 0.0
 0.0 1.0000000 0.0 0.0
 0.0 0.0 1.0000000 0.0
 0.0 0.0 0.0 1.0000000
* P-type functions
    4 2
        22.665994
        4.9760341
        1.3476543
        .34775168
 .34028872E-01 0.0
 .17865315 0.0
 .38497323 0.0
 0.0 1.0000000

/Fe.DZ..14s9p5d.8s5p3d.
 H.Horn, Feb. 1992
FE       (14s9p5d) -> [8s5p3d]

	26.000000 2
* S-type functions
    14 8
        350644.12607
        52557.104477
        11962.157603
        3389.2987902
        1109.9409814
        406.75892124
        161.55419196
        65.675211180
        16.425713224
        7.0930281780
        2.1594285091
        .84771349067
        .11079496206
        .41316804349E-01
 .21930425610E-03 0.0 0.0 0.0 0.0 0.0 0.0 0.0
 .17010935336E-02 0.0 0.0 0.0 0.0 0.0 0.0 0.0
 .88585173662E-02 0.0 0.0 0.0 0.0 0.0 0.0 0.0
 .36119369310E-01 0.0 0.0 0.0 0.0 0.0 0.0 0.0
 .11780528034 0.0 0.0 0.0 0.0 0.0 0.0 0.0
 .28846626172 0.0 0.0 0.0 0.0 0.0 0.0 0.0
 0.0 .38162019329 0.0 0.0 0.0 0.0 0.0 0.0
 0.0 .29212575148 0.0 0.0 0.0 0.0 0.0 0.0
 0.0 0.0 1.0000000000 0.0 0.0 0.0 0.0 0.0
 0.0 0.0 0.0 1.0000000000 0.0 0.0 0.0 0.0
 0.0 0.0 0.0 0.0 1.0000000000 0.0 0.0 0.0
 0.0 0.0 0.0 0.0 0.0 1.0000000000 0.0 0.0
 0.0 0.0 0.0 0.0 0.0 0.0 1.0000000000 0.0
 0.0 0.0 0.0 0.0 0.0 0.0 0.0 1.0000000000
* P-type functions
    9 5
        1953.6045319
        463.29314066
        149.67493331
        56.707112031
        23.341028866
        10.011393164
        4.1564019580
        1.6369582567
        .60376297473
 .19381610539E-02 0.0 0.0 0.0 0.0
 .15916196664E-01 0.0 0.0 0.0 0.0
 .76149150478E-01 0.0 0.0 0.0 0.0
 0.0 .23624430461 0.0 0.0 0.0
 0.0 .43978884628 0.0 0.0 0.0
 0.0 .38362585555 0.0 0.0 0.0
 0.0 0.0 1.0000000000 0.0 0.0
 0.0 0.0 0.0 1.0000000000 0.0
 0.0 0.0 0.0 0.0 1.0000000000
* D-type functions
    5 3
        38.966442392
        10.798970877
        3.6129748398
        1.2130285825
        .36523978460
 .2788406771E-01 0.0 0.0
 .1486313493 0.0 0.0
 .3691295870 0.0 0.0
 0.0 1.0000000000 0.0
 0.0 0.0 1.0000000000

/Ga.DZ..14s11p5d.8s6p2d.
 H. Horn, Feb. 1992
GA       (14s11p5d) -> [8s6p2d]

	31.000000 2
* S-type functions
    14 8
        505335.63296
        75742.783844
        17239.466305
        4884.9379362
        1600.5426736
        587.75692288
        234.30109797
        95.611618032
        24.169750218
        10.570603407
        3.3873246666
        1.3329947879
        .19249282002
        .70551923431E-01
 .20973735734E-03 0.0 0.0 0.0 0.0 0.0 0.0 0.0
 .16269717355E-02 0.0 0.0 0.0 0.0 0.0 0.0 0.0
 .84741210878E-02 0.0 0.0 0.0 0.0 0.0 0.0 0.0
 .34571148247E-01 0.0 0.0 0.0 0.0 0.0 0.0 0.0
 .11286665876 0.0 0.0 0.0 0.0 0.0 0.0 0.0
 .27673631539 0.0 0.0 0.0 0.0 0.0 0.0 0.0
 0.0 .38518444468 0.0 0.0 0.0 0.0 0.0 0.0
 0.0 .30199565005 0.0 0.0 0.0 0.0 0.0 0.0
 0.0 0.0 1.0000000000 0.0 0.0 0.0 0.0 0.0
 0.0 0.0 0.0 1.0000000000 0.0 0.0 0.0 0.0
 0.0 0.0 0.0 0.0 1.0000000000 0.0 0.0 0.0
 0.0 0.0 0.0 0.0 0.0 1.0000000000 0.0 0.0
 0.0 0.0 0.0 0.0 0.0 0.0 1.0000000000 0.0
 0.0 0.0 0.0 0.0 0.0 0.0 0.0 1.0000000000
* P-type functions
    11 6
        2971.6078970
        705.19903787
        228.76520451
        87.456391077
        36.540231966
        15.974579723
        6.8870611525
        2.8318589081
        1.1078009985
        .23450858657
        .63626881249E-01
 .15991735684E-02 0.0 0.0 0.0 0.0 0.0
 .13222475234E-01 0.0 0.0 0.0 0.0 0.0
 .63791572879E-01 0.0 0.0 0.0 0.0 0.0
 0.0 .21775082725 0.0 0.0 0.0 0.0
 0.0 .41394918898 0.0 0.0 0.0 0.0
 0.0 .37538235687 0.0 0.0 0.0 0.0
 0.0 0.0 1.0000000000 0.0 0.0 0.0
 0.0 0.0 0.0 .58552518446 0.0 0.0
 0.0 0.0 0.0 .33671542689 0.0 0.0
 0.0 0.0 0.0 0.0 1.0000000000 0.0
 0.0 0.0 0.0 0.0 0.0 1.0000000000
* D-type functions
    5 2
        65.344641807
        18.500577517
        6.3162058406
        2.1638832514
        .66688378425
 .27378344748E-01 0.0
 .15105668772 0.0
 .37491843310 0.0
 .47510265366 0.0
 0.0 1.0000000000

/Ge.DZ..14s11p5d.8s6p2d.
 H.Horn, Feb. 1992
GE       (14s11p5d) -> [8s6p2d]

	32.000000 2
* S-type functions
    14 8
        538981.20859
        80785.768954
        18387.321539
        5210.3369514
        1707.4890772
        627.54854073
        250.56696133
        102.39333101
        25.923923344
        11.389081191
        3.7472808901
        1.5027733307
        .24441033890
        .91205393545E-01
 -.21200860409E-03 0.0 0.0 0.0 0.0 0.0 0.0 0.0
 -.16445989897E-02 0.0 0.0 0.0 0.0 0.0 0.0 0.0
 -.85660702046E-02 0.0 0.0 0.0 0.0 0.0 0.0 0.0
 -.34946370611E-01 0.0 0.0 0.0 0.0 0.0 0.0 0.0
 -.11406152082 0.0 0.0 0.0 0.0 0.0 0.0 0.0
 -.27936327962 0.0 0.0 0.0 0.0 0.0 0.0 0.0
 0.0 -.39100943355 0.0 0.0 0.0 0.0 0.0 0.0
 0.0 -.30845092051 0.0 0.0 0.0 0.0 0.0 0.0
 0.0 0.0 1.0000000000 0.0 0.0 0.0 0.0 0.0
 0.0 0.0 0.0 1.0000000000 0.0 0.0 0.0 0.0
 0.0 0.0 0.0 0.0 1.0000000000 0.0 0.0 0.0
 0.0 0.0 0.0 0.0 0.0 1.0000000000 0.0 0.0
 0.0 0.0 0.0 0.0 0.0 0.0 1.0000000000 0.0
 0.0 0.0 0.0 0.0 0.0 0.0 0.0 1.0000000000
* P-type functions
    11 6
        3196.8571212
        758.78574707
        246.40186162
        94.429089481
        39.602333266
        17.394023219
        7.5468872383
        3.1497947773
        1.2651485767
        .30024031728
        .87319187211E-01
 .15092965988E-02 0.0 0.0 0.0 0.0 0.0
 .12488543624E-01 0.0 0.0 0.0 0.0 0.0
 .60253286742E-01 0.0 0.0 0.0 0.0 0.0
 0.0 .22636609656 0.0 0.0 0.0 0.0
 0.0 .43152371868 0.0 0.0 0.0 0.0
 0.0 .39496423014 0.0 0.0 0.0 0.0
 0.0 0.0 1.0000000000 0.0 0.0 0.0
 0.0 0.0 0.0 .59773652861 0.0 0.0
 0.0 0.0 0.0 .34946772770 0.0 0.0
 0.0 0.0 0.0 0.0 1.0000000000 0.0
 0.0 0.0 0.0 0.0 0.0 1.0000000000
* D-type functions
    5 2
        74.776447903
        21.307762727
        7.3452966023
        2.5656881541
        .81988587339
 .25760221955E-01 0.0
 .14540991775 0.0
 .37136367703 0.0
 .48003150467 0.0
 0.0 1.0000000000

/H.DZ..4s.2s.
 H. Horn, Aug. 91
H       (4s) -> [2s]

	1.000000 0
* S-type functions
    4 2
        13.010701
        1.9622572
        .44453796
        .12194962
 .19682158E-01 0.0
 .13796524 0.0
 .47831935 0.0
 0.0 1.0000000

/He.DZ..4s.2s.
 H. Horn, Jan. 92
HE       (4s) -> [2s]

	2.000000 0
* S-type functions
    4 2
        38.354936737
        5.7689081479
        1.2399407035
        .29757815953
 .23814288905E-01 0.0
 .15490906777 0.0
 .46998096633 0.0
 0.0 1.0000000000

/In.DZ..15s11p6d.10s8p4d.
Reference none
IN       (15s11p6d) -> [10s8p4d]

	49.000000 2
* S-type functions
    15 10
        378648.60000
        55526.460000
        12259.920000
        3392.1400000
        1108.2940000
        412.94140000
        168.48920000
        68.322150000
        30.589530000
        11.103910000
        5.5330330000
        1.9225500000
        .84140340000
        .14933250000
        .56228090000E-01
 .89000000000E-03 0.0 0.0 0.0 0.0 0.0 0.0 0.0 0.0 0.0
 .71600000000E-02 0.0 0.0 0.0 0.0 0.0 0.0 0.0 0.0 0.0
 .37880000000E-01 0.0 0.0 0.0 0.0 0.0 0.0 0.0 0.0 0.0
 .14297000000 0.0 0.0 0.0 0.0 0.0 0.0 0.0 0.0 0.0
 .35130000000 0.0 0.0 0.0 0.0 0.0 0.0 0.0 0.0 0.0
 0.0 .43520000000 0.0 0.0 0.0 0.0 0.0 0.0 0.0 0.0
 0.0 .16684000000 0.0 0.0 0.0 0.0 0.0 0.0 0.0 0.0
 0.0 0.0 1.0000000000 0.0 0.0 0.0 0.0 0.0 0.0 0.0
 0.0 0.0 0.0 1.0000000000 0.0 0.0 0.0 0.0 0.0 0.0
 0.0 0.0 0.0 0.0 1.0000000000 0.0 0.0 0.0 0.0 0.0
 0.0 0.0 0.0 0.0 0.0 1.0000000000 0.0 0.0 0.0 0.0
 0.0 0.0 0.0 0.0 0.0 0.0 1.0000000000 0.0 0.0 0.0
 0.0 0.0 0.0 0.0 0.0 0.0 0.0 1.0000000000 0.0 0.0
 0.0 0.0 0.0 0.0 0.0 0.0 0.0 0.0 1.0000000000 0.0
 0.0 0.0 0.0 0.0 0.0 0.0 0.0 0.0 0.0 1.0000000000
* P-type functions
    11 8
        2453.7160000
        591.59170000
        196.11100000
        76.420480000
        32.544610000
        13.909270000
        6.2686860000
        2.3198450000
        .90694810000
        .21320300000
        .59432400000E-01
 .12650000000E-01 0.0 0.0 0.0 0.0 0.0 0.0 0.0
 .88520000000E-01 0.0 0.0 0.0 0.0 0.0 0.0 0.0
 .30123000000 0.0 0.0 0.0 0.0 0.0 0.0 0.0
 .48115000000 0.0 0.0 0.0 0.0 0.0 0.0 0.0
 0.0 1.0000000000 0.0 0.0 0.0 0.0 0.0 0.0
 0.0 0.0 1.0000000000 0.0 0.0 0.0 0.0 0.0
 0.0 0.0 0.0 1.0000000000 0.0 0.0 0.0 0.0
 0.0 0.0 0.0 0.0 1.0000000000 0.0 0.0 0.0
 0.0 0.0 0.0 0.0 0.0 1.0000000000 0.0 0.0
 0.0 0.0 0.0 0.0 0.0 0.0 1.0000000000 0.0
 0.0 0.0 0.0 0.0 0.0 0.0 0.0 1.0000000000
* D-type functions
    6 4
        211.97580000
        61.471900000
        21.688680000
        8.1094220000
        2.3949750000
        .70990350000
 .32630000000E-01 0.0 0.0 0.0
 .19612000000 0.0 0.0 0.0
 .48149000000 0.0 0.0 0.0
 0.0 1.0000000000 0.0 0.0
 0.0 0.0 1.0000000000 0.0
 0.0 0.0 0.0 1.0000000000

/K.DZ..14s9p.8s5p.
 H.Horn, Feb. 91
K       (14s9p) -> [8s5p]

	19.000000 1
* S-type functions
    14 8
        182594.27324
        27369.004986
        6229.1737971
        1764.5823486
        577.05120588
        210.24933364
        82.617830641
        33.233184522
        8.1064902102
        3.3340258818
        .84554422261
        .32821626529
        .36403528487E-01
        .17646286458E-01
 -.22774735930E-03 0.0 0.0 0.0 0.0 0.0 0.0 0.0
 -.17663987129E-02 0.0 0.0 0.0 0.0 0.0 0.0 0.0
 -.91949712091E-02 0.0 0.0 0.0 0.0 0.0 0.0 0.0
 -.37455084336E-01 0.0 0.0 0.0 0.0 0.0 0.0 0.0
 -.12204454437 0.0 0.0 0.0 0.0 0.0 0.0 0.0
 -.29898972079 0.0 0.0 0.0 0.0 0.0 0.0 0.0
 0.0 -.40514697026 0.0 0.0 0.0 0.0 0.0 0.0
 0.0 -.29253151429 0.0 0.0 0.0 0.0 0.0 0.0
 0.0 0.0 1.0000000000 0.0 0.0 0.0 0.0 0.0
 0.0 0.0 0.0 1.0000000000 0.0 0.0 0.0 0.0
 0.0 0.0 0.0 0.0 1.0000000000 0.0 0.0 0.0
 0.0 0.0 0.0 0.0 0.0 1.0000000000 0.0 0.0
 0.0 0.0 0.0 0.0 0.0 0.0 1.0000000000 0.0
 0.0 0.0 0.0 0.0 0.0 0.0 0.0 1.0000000000
* P-type functions
    9 5
        891.05446872
        211.01581996
        67.671412378
        25.271488100
        10.138958969
        4.2018627167
        1.6029467214
        .61461253051
        .22199300786
 .21842914244E-02 0.0 0.0 0.0 0.0
 .17589110824E-01 0.0 0.0 0.0 0.0
 .81777473118E-01 0.0 0.0 0.0 0.0
 0.0 .24565631884 0.0 0.0 0.0
 0.0 .43398376891 0.0 0.0 0.0
 0.0 .36237664939 0.0 0.0 0.0
 0.0 0.0 1.0000000000 0.0 0.0
 0.0 0.0 0.0 1.0000000000 0.0
 0.0 0.0 0.0 0.0 1.0000000000

/Kr.DZ..14s11p5d.8s6p2d.
 H.Horn, Feb. 1992
KR       (14s11p5d) -> [8s6p2d]

	36.000000 2
* S-type functions
    14 8
        684221.99700
        102555.20043
        23342.393775
        6615.0835507
        2169.3438677
        799.69607957
        321.18212105
        131.90111670
        33.536473012
        14.969888552
        5.3755395083
        2.2858479626
        .48690237132
        .18641011710
 .20938881047E-03 0.0 0.0 0.0 0.0 0.0 0.0 0.0
 .16243059281E-02 0.0 0.0 0.0 0.0 0.0 0.0 0.0
 .84608205581E-02 0.0 0.0 0.0 0.0 0.0 0.0 0.0
 .34516931725E-01 0.0 0.0 0.0 0.0 0.0 0.0 0.0
 .11254581180 0.0 0.0 0.0 0.0 0.0 0.0 0.0
 .27450858880 0.0 0.0 0.0 0.0 0.0 0.0 0.0
 0.0 .33928755318 0.0 0.0 0.0 0.0 0.0 0.0
 0.0 .27359932213 0.0 0.0 0.0 0.0 0.0 0.0
 0.0 0.0 1.0000000000 0.0 0.0 0.0 0.0 0.0
 0.0 0.0 0.0 1.0000000000 0.0 0.0 0.0 0.0
 0.0 0.0 0.0 0.0 1.0000000000 0.0 0.0 0.0
 0.0 0.0 0.0 0.0 0.0 1.0000000000 0.0 0.0
 0.0 0.0 0.0 0.0 0.0 0.0 1.0000000000 0.0
 0.0 0.0 0.0 0.0 0.0 0.0 0.0 1.0000000000
* P-type functions
    11 6
        4128.6993199
        980.47534405
        319.40135820
        123.36181040
        52.362318744
        23.335425093
        10.340745051
        4.4694078019
        1.9177854904
        .61259063615
        .18236405019
 -.15636044631E-02 0.0 0.0 0.0 0.0 0.0
 -.12961443065E-01 0.0 0.0 0.0 0.0 0.0
 -.62464453956E-01 0.0 0.0 0.0 0.0 0.0
 0.0 -.21245676823 0.0 0.0 0.0 0.0
 0.0 -.40604315810 0.0 0.0 0.0 0.0
 0.0 -.37652208104 0.0 0.0 0.0 0.0
 0.0 0.0 1.0000000000 0.0 0.0 0.0
 0.0 0.0 0.0 .55671930670 0.0 0.0
 0.0 0.0 0.0 .30604453289 0.0 0.0
 0.0 0.0 0.0 0.0 1.0000000000 0.0
 0.0 0.0 0.0 0.0 0.0 1.0000000000
* D-type functions
    5 2
        115.56236667
        33.477247149
        11.834799736
        4.3415492653
        1.5081356984
 .21944058194E-01 0.0
 .13211460240 0.0
 .36327650298 0.0
 .49302860092 0.0
 0.0 1.0000000000

/Li.DZ..8s.4s.
 H. Horn, Aug. 91
LI       (8s) -> [4s]

	3.000000 0
* S-type functions
    8 4
        1484.2786
        222.69992
        50.684546
        14.316666
        4.5943260
        1.5829911
        .56225886
        .47871054E-01
 .76251748E-03 0.0 0.0 0.0
 .58724582E-02 0.0 0.0 0.0
 .29685750E-01 0.0 0.0 0.0
 .10983724 0.0 0.0 0.0
 .28534702 0.0 0.0 0.0
 0.0 1.0000000 0.0 0.0
 0.0 0.0 1.0000000 0.0
 0.0 0.0 0.0 1.0000000

/Mg.DZ..7s5p.2s2p.
 A. Schaefer, Feb. 92
MG       (7s5p) -> [2s2p]

	12.000000 1
* S-type functions
    7 2
        27472.334150
        4121.2426211
        938.08725539
        265.74694894
        86.890815391
        31.518085008
        12.105011298
 .66060357994E-03 0.0
 .50995317115E-02 0.0
 .26037522158E-01 0.0
 .99320095208E-01 0.0
 .27056218981 0.0
 0.0 .20077751829
 0.0 .12837397095
* P-type functions
    5 2
        98.060506609
        22.584713941
        6.8377400326
        2.2333606339
        .71625757083
 .14482401205E-01 0.0
 .95549793224E-01 0.0
 .30796448808 0.0
 .49945453511 0.0
 0.0 .31472895581

/Mn.DZ..14s9p5d.8s5p3d.
 H.Horn, Jan. 1992
MN       (14s9p5d) -> [8s5p3d]

	25.000000 2
* S-type functions
    14 8
        323081.74475
        48425.987147
        11021.928421
        3122.8651683
        1022.5702211
        374.56667732
        148.65013953
        60.379056785
        15.061289037
        6.4827687206
        1.9535131494
        .77017850250
        .10192025361
        .38619748377E-01
 -.21859070020E-03 0.0 0.0 0.0 0.0 0.0 0.0 0.0
 -.16955363594E-02 0.0 0.0 0.0 0.0 0.0 0.0 0.0
 -.88290480374E-02 0.0 0.0 0.0 0.0 0.0 0.0 0.0
 -.35993860594E-01 0.0 0.0 0.0 0.0 0.0 0.0 0.0
 -.11736441426 0.0 0.0 0.0 0.0 0.0 0.0 0.0
 -.28725942760 0.0 0.0 0.0 0.0 0.0 0.0 0.0
 0.0 -.38025987789 0.0 0.0 0.0 0.0 0.0 0.0
 0.0 -.28945410868 0.0 0.0 0.0 0.0 0.0 0.0
 0.0 0.0 1.0000000000 0.0 0.0 0.0 0.0 0.0
 0.0 0.0 0.0 1.0000000000 0.0 0.0 0.0 0.0
 0.0 0.0 0.0 0.0 1.0000000000 0.0 0.0 0.0
 0.0 0.0 0.0 0.0 0.0 1.0000000000 0.0 0.0
 0.0 0.0 0.0 0.0 0.0 0.0 1.0000000000 0.0
 0.0 0.0 0.0 0.0 0.0 0.0 0.0 1.0000000000
* P-type functions
    9 5
        1777.8786824
        421.57754180
        136.11333999
        51.506778634
        21.153225441
        9.0477144185
        3.7308563614
        1.4705331536
        .54391840977
 -.19331617534E-02 0.0 0.0 0.0 0.0
 -.15844007165E-01 0.0 0.0 0.0 0.0
 -.75568981168E-01 0.0 0.0 0.0 0.0
 0.0 -.23597435106 0.0 0.0 0.0
 0.0 -.43718791573 0.0 0.0 0.0
 0.0 -.38024192504 0.0 0.0 0.0
 0.0 0.0 1.0000000000 0.0 0.0
 0.0 0.0 0.0 1.0000000000 0.0
 0.0 0.0 0.0 0.0 1.0000000000
* D-type functions
    5 3
        35.424816646
        9.7813282131
        3.2670712909
        1.1028271910
        .33748086571
 .28270751938E-01 0.0 0.0
 .15071665458 0.0 0.0
 .38158552024 0.0 0.0
 0.0 1.0000000000 0.0
 0.0 0.0 1.0000000000

/N.DZ..8s4p.4s2p.
 H. Horn, Aug. 91
N       (8s4p) -> [4s2p]

	7.000000 1
* S-type functions
    8 4
        5071.9892
        761.41791
        173.18418
        48.670390
        15.331448
        5.0186710
        .83554772
        .24626814
 .17067238E-02 0.0 0.0 0.0
 .13087696E-01 0.0 0.0 0.0
 .65098252E-01 0.0 0.0 0.0
 .23051603 0.0 0.0 0.0
 .53300474 0.0 0.0 0.0
 0.0 1.0000000 0.0 0.0
 0.0 0.0 1.0000000 0.0
 0.0 0.0 0.0 1.0000000
* P-type functions
    4 2
        13.550722
        2.9178682
        .79831252
        .21900125
 .40630840E-01 0.0
 .22085799 0.0
 .51860142 0.0
 0.0 1.0000000

/Na.DZ..11s5p.6s2p.
 A. Schaefer, Feb. 92
NA       (11s5p) -> [6s2p]

	11.000000 1
* S-type functions
    11 6
        28048.884797
        4207.0284406
        957.88477766
        272.15296475
        91.091312119
        38.078679609
        20.306999872
        9.2665418351
        2.2160241629
        .69205019147
        .40524497194E-01
 .46752375687E-03 0.0 0.0 0.0 0.0 0.0
 .36133313466E-02 0.0 0.0 0.0 0.0 0.0
 .18529180011E-01 0.0 0.0 0.0 0.0 0.0
 .71293975062E-01 0.0 0.0 0.0 0.0 0.0
 .19046447410 0.0 0.0 0.0 0.0 0.0
 0.0 .41823582126 0.0 0.0 0.0 0.0
 0.0 .45441713959 0.0 0.0 0.0 0.0
 0.0 0.0 1.0000000000 0.0 0.0 0.0
 0.0 0.0 0.0 1.0000000000 0.0 0.0
 0.0 0.0 0.0 0.0 1.0000000000 0.0
 0.0 0.0 0.0 0.0 0.0 1.0000000000
* P-type functions
    5 2
        75.430599161
        17.277911860
        5.1829377222
        1.6602128738
        .51271194274
 .15424950859E-01 0.0
 .99754770477E-01 0.0
 .31216741273 0.0
 .49268483296 0.0
 0.0 1.0000000000

/Ne.DZ..8s4p.4s2p.
 H.Horn, Jan. 92
NE       (8s4p) -> [4s2p]

	10.000000 1
* S-type functions
    8 4
        10880.939306
        1633.3374648
        371.49062178
        104.45545964
        32.988575872
        10.820620157
        1.9072526872
        .54586681979
 -.17016204009E-02 0.0 0.0 0.0
 -.13062531102E-01 0.0 0.0 0.0
 -.65282334141E-01 0.0 0.0 0.0
 -.23451307991 0.0 0.0 0.0
 -.55500082895 0.0 0.0 0.0
 0.0 1.0000000000 0.0 0.0
 0.0 0.0 1.0000000000 0.0
 0.0 0.0 0.0 1.0000000000
* P-type functions
    4 2
        28.391507535
        6.2702151539
        1.6963316642
        .43248286376
 .46446491393E-01 0.0
 .24193624405 0.0
 .51206996598 0.0
 0.0 1.0000000000

/Ni.DZ..14s9p5d.8s5p3d.
 H.Horn, Feb. 1992
NI       (14s9p5d) -> [8s5p3d]

	28.000000 2
* S-type functions
    14 8
        409347.86899
        61355.839255
        13964.858128
        3956.8598699
        1296.0290474
        475.27876516
        188.98838775
        76.928736976
        19.331828730
        8.3876399732
        2.5894342897
        1.0071374699
        .12732573122
        .46189806319E-01
 .21251775671E-03 0.0 0.0 0.0 0.0 0.0 0.0 0.0
 .16484929893E-02 0.0 0.0 0.0 0.0 0.0 0.0 0.0
 .85853287121E-02 0.0 0.0 0.0 0.0 0.0 0.0 0.0
 .35015333983E-01 0.0 0.0 0.0 0.0 0.0 0.0 0.0
 .11427672717 0.0 0.0 0.0 0.0 0.0 0.0 0.0
 .28015249519 0.0 0.0 0.0 0.0 0.0 0.0 0.0
 0.0 .39246284244 0.0 0.0 0.0 0.0 0.0 0.0
 0.0 .30331302178 0.0 0.0 0.0 0.0 0.0 0.0
 0.0 0.0 1.0000000000 0.0 0.0 0.0 0.0 0.0
 0.0 0.0 0.0 1.0000000000 0.0 0.0 0.0 0.0
 0.0 0.0 0.0 0.0 1.0000000000 0.0 0.0 0.0
 0.0 0.0 0.0 0.0 0.0 1.0000000000 0.0 0.0
 0.0 0.0 0.0 0.0 0.0 0.0 1.0000000000 0.0
 0.0 0.0 0.0 0.0 0.0 0.0 0.0 1.0000000000
* P-type functions
    9 5
        2329.8384386
        552.60693015
        178.71193584
        67.841750813
        28.028033533
        12.076469199
        5.0694186684
        1.9911895236
        .73006887823
 -.18414189988E-02 0.0 0.0 0.0 0.0
 -.15173689070E-01 0.0 0.0 0.0 0.0
 -.73004669649E-01 0.0 0.0 0.0 0.0
 0.0 -.23224844852 0.0 0.0 0.0
 0.0 -.43596047040 0.0 0.0 0.0
 0.0 -.38213785733 0.0 0.0 0.0
 0.0 0.0 1.0000000000 0.0 0.0
 0.0 0.0 0.0 1.0000000000 0.0
 0.0 0.0 0.0 0.0 1.0000000000
* D-type functions
    5 3
        47.088303645
        13.144067226
        4.4158589541
        1.4769996640
        .43728964755
 .31522580302E-01 0.0 0.0
 .16855325691 0.0 0.0
 .40930004652 0.0 0.0
 0.0 .51501527779 0.0
 0.0 0.0 .33962671234

/O.DZ..8s4p.4s2p.
 H. Horn, Aug. 91
O       (8s4p) -> [4s2p]

	8.000000 1
* S-type functions
    8 4
        6773.3747
        1016.7970
        231.26738
        65.008454
        20.499808
        6.7160664
        1.1471572
        .33423251
 .17266130E-02 0.0 0.0 0.0
 .13246484E-01 0.0 0.0 0.0
 .66026157E-01 0.0 0.0 0.0
 .23528361 0.0 0.0 0.0
 .54976236 0.0 0.0 0.0
 0.0 1.0000000 0.0 0.0
 0.0 0.0 1.0000000 0.0
 0.0 0.0 0.0 1.0000000
* P-type functions
    4 2
        17.694264
        3.8536027
        1.0467465
        .27586043
 .43590224E-01 0.0
 .23178087 0.0
 .51455969 0.0
 0.0 1.0000000

/P.DZ..11s7p.6s4p.
 H. Horn, Aug. 91
P       (11s7p) -> [6s4p]

	15.000000 1
* S-type functions
    11 6
        43629.146384
        6544.9101761
        1489.8784631
        422.38300193
        138.69747966
        50.865386699
        19.826936819
        4.5933029207
        1.7570187795
        .34358804778
        .12451452677
 .60290694324E-03 0.0 0.0 0.0 0.0 0.0
 .46551468038E-02 0.0 0.0 0.0 0.0 0.0
 .23786703379E-01 0.0 0.0 0.0 0.0 0.0
 .90866640549E-01 0.0 0.0 0.0 0.0 0.0
 .24743794714 0.0 0.0 0.0 0.0 0.0
 0.0 .45854747443 0.0 0.0 0.0 0.0
 0.0 .30750563013 0.0 0.0 0.0 0.0
 0.0 0.0 1.0000000000 0.0 0.0 0.0
 0.0 0.0 0.0 1.0000000000 0.0 0.0
 0.0 0.0 0.0 0.0 1.0000000000 0.0
 0.0 0.0 0.0 0.0 0.0 1.0000000000
* P-type functions
    7 4
        215.97067949
        50.428986942
        15.653604009
        5.4085976775
        1.9189363936
        .45420822084
        .13190937083
 .99703587825E-02 0.0 0.0 0.0
 .70614266037E-01 0.0 0.0 0.0
 .25773443022 0.0 0.0 0.0
 .49153067625 0.0 0.0 0.0
 0.0 1.0000000000 0.0 0.0
 0.0 0.0 1.0000000000 0.0
 0.0 0.0 0.0 1.0000000000

/S.DZ..11s7p.6s4p.
 H. Horn, Aug. 91
S       (11s7p) -> [6s4p]

	16.000000 1
* S-type functions
    11 6
        49931.306
        7490.2711
        1705.1055
        483.47884
        158.90589
        58.413186
        22.841767
        5.3498518
        2.0927789
        .44225000
        .15874342
 .63274501E-03 0.0 0.0 0.0 0.0 0.0
 .48858645E-02 0.0 0.0 0.0 0.0 0.0
 .24971982E-01 0.0 0.0 0.0 0.0 0.0
 .95454085E-01 0.0 0.0 0.0 0.0 0.0
 .26010998 0.0 0.0 0.0 0.0 0.0
 0.0 .46095982 0.0 0.0 0.0 0.0
 0.0 .31306229 0.0 0.0 0.0 0.0
 0.0 0.0 1.0000000 0.0 0.0 0.0
 0.0 0.0 0.0 1.0000000 0.0 0.0
 0.0 0.0 0.0 0.0 1.0000000 0.0
 0.0 0.0 0.0 0.0 0.0 1.0000000
* P-type functions
    7 4
        253.96442
        59.394576
        18.493871
        6.4332816
        2.3192912
        .57410823
        .16151193
 .98390160E-02 0.0 0.0 0.0
 .70241814E-01 0.0 0.0 0.0
 .25887557 0.0 0.0 0.0
 .49717317 0.0 0.0 0.0
 0.0 1.0000000 0.0 0.0
 0.0 0.0 1.0000000 0.0
 0.0 0.0 0.0 1.0000000

/Sc.DZ..14s9p5d.8s5p3d.
 H.Horn, Feb. 1992
SC       (14s9p5d) -> [8s5p3d]

	21.000000 2
* S-type functions
    14 8
        224356.94297
        33628.706060
        7654.0171483
        2168.4396566
        709.62663857
        259.31731327
        102.47803758
        41.443139691
        10.201855624
        4.3044982698
        1.2219457424
        .49725181441
        .72728077521E-01
        .29393829275E-01
 .21995956274E-03 0.0 0.0 0.0 0.0 0.0 0.0 0.0
 .17060418888E-02 0.0 0.0 0.0 0.0 0.0 0.0 0.0
 .88815294669E-02 0.0 0.0 0.0 0.0 0.0 0.0 0.0
 .36183704997E-01 0.0 0.0 0.0 0.0 0.0 0.0 0.0
 .11783926752 0.0 0.0 0.0 0.0 0.0 0.0 0.0
 .28791645141 0.0 0.0 0.0 0.0 0.0 0.0 0.0
 0.0 .36705138717 0.0 0.0 0.0 0.0 0.0 0.0
 0.0 .27161995906 0.0 0.0 0.0 0.0 0.0 0.0
 0.0 0.0 1.0000000000 0.0 0.0 0.0 0.0 0.0
 0.0 0.0 0.0 1.0000000000 0.0 0.0 0.0 0.0
 0.0 0.0 0.0 0.0 1.0000000000 0.0 0.0 0.0
 0.0 0.0 0.0 0.0 0.0 1.0000000000 0.0 0.0
 0.0 0.0 0.0 0.0 0.0 0.0 1.0000000000 0.0
 0.0 0.0 0.0 0.0 0.0 0.0 0.0 1.0000000000
* P-type functions
    9 5
        1154.9909592
        273.70496612
        88.069327311
        33.110760026
        13.436440751
        5.6580984638
        2.2436704314
        .88798004276
        .33282409733
 .20102722718E-02 0.0 0.0 0.0 0.0
 .16305069846E-01 0.0 0.0 0.0 0.0
 .76527889024E-01 0.0 0.0 0.0 0.0
 0.0 .23950904039 0.0 0.0 0.0
 0.0 .43235380227 0.0 0.0 0.0
 0.0 .36969429392 0.0 0.0 0.0
 0.0 0.0 1.0000000000 0.0 0.0
 0.0 0.0 0.0 1.0000000000 0.0
 0.0 0.0 0.0 0.0 1.0000000000
* D-type functions
    5 3
        19.238524038
        5.1173305876
        1.6549883906
        .54017604591
        .16210625295
 .27054664721E-01 0.0 0.0
 .13813249967 0.0 0.0
 .34895303019 0.0 0.0
 0.0 1.0000000000 0.0
 0.0 0.0 1.0000000000

/Se.DZ..14s11p5d.8s6p2d.
 H.Horn, Feb. 1992
SE       (14s11p5d) -> [8s6p2d]

	34.000000 2
* S-type functions
    14 8
        609461.56165
        91349.728469
        20791.844910
        5892.0009402
        1931.5795523
        711.02173299
        284.76563000
        116.67280336
        29.611379847
        13.118921596
        4.5252274573
        1.8747678530
        .35857737666
        .13617743845
 .20666334290E-03 0.0 0.0 0.0 0.0 0.0 0.0 0.0
 .16031495925E-02 0.0 0.0 0.0 0.0 0.0 0.0 0.0
 .83504137596E-02 0.0 0.0 0.0 0.0 0.0 0.0 0.0
 .34066587387E-01 0.0 0.0 0.0 0.0 0.0 0.0 0.0
 .11113199915 0.0 0.0 0.0 0.0 0.0 0.0 0.0
 .27160877452 0.0 0.0 0.0 0.0 0.0 0.0 0.0
 0.0 .40353358477 0.0 0.0 0.0 0.0 0.0 0.0
 0.0 .32201537581 0.0 0.0 0.0 0.0 0.0 0.0
 0.0 0.0 1.0000000000 0.0 0.0 0.0 0.0 0.0
 0.0 0.0 0.0 1.0000000000 0.0 0.0 0.0 0.0
 0.0 0.0 0.0 0.0 1.0000000000 0.0 0.0 0.0
 0.0 0.0 0.0 0.0 0.0 1.0000000000 0.0 0.0
 0.0 0.0 0.0 0.0 0.0 0.0 1.0000000000 0.0
 0.0 0.0 0.0 0.0 0.0 0.0 0.0 1.0000000000
* P-type functions
    11 6
        3656.2658173
        868.08211673
        282.38879090
        108.68249518
        45.880428373
        20.313633210
        8.9138677790
        3.8029430087
        1.5911663461
        .44755579009
        .13236319065
 .14714128997E-02 0.0 0.0 0.0 0.0 0.0
 .12188231954E-01 0.0 0.0 0.0 0.0 0.0
 .58780468899E-01 0.0 0.0 0.0 0.0 0.0
 0.0 .22385125713 0.0 0.0 0.0 0.0
 0.0 .42784037994 0.0 0.0 0.0 0.0
 0.0 .39569867976 0.0 0.0 0.0 0.0
 0.0 0.0 1.0000000000 0.0 0.0 0.0
 0.0 0.0 0.0 .58895017030 0.0 0.0
 0.0 0.0 0.0 .34147004237 0.0 0.0
 0.0 0.0 0.0 0.0 1.0000000000 0.0
 0.0 0.0 0.0 0.0 0.0 1.0000000000
* D-type functions
    5 2
        94.493793993
        27.186508933
        9.5088741989
        3.4175441801
        1.1481458665
 .23490451687E-01 0.0
 .13749365615 0.0
 .36646762776 0.0
 .48752298742 0.0
 0.0 1.0000000000

/Si.DZ..11s7p.6s4p.
 H. Horn, Aug. 91
SI       (11s7p) -> [6s4p]

	14.000000 1
* S-type functions
    11 6
        37778.321
        5667.2439
        1290.0636
        365.66405
        119.94065
        43.863083
        17.032537
        3.8907716
        1.4469558
        .25532059
        .93327812E-01
 .61382184E-03 0.0 0.0 0.0 0.0 0.0
 .47390801E-02 0.0 0.0 0.0 0.0 0.0
 .24209100E-01 0.0 0.0 0.0 0.0 0.0
 .92422866E-01 0.0 0.0 0.0 0.0 0.0
 .25154881 0.0 0.0 0.0 0.0 0.0
 0.0 .45306131 0.0 0.0 0.0 0.0
 0.0 .29955749 0.0 0.0 0.0 0.0
 0.0 0.0 1.0000000 0.0 0.0 0.0
 0.0 0.0 0.0 1.0000000 0.0 0.0
 0.0 0.0 0.0 0.0 1.0000000 0.0
 0.0 0.0 0.0 0.0 0.0 1.0000000
* P-type functions
    7 4
        178.34977
        41.549427
        12.842944
        4.3972841
        1.5311894
        .34443516
        .97809520E-01
 .10250161E-01 0.0 0.0 0.0
 .71747308E-01 0.0 0.0 0.0
 .25746447 0.0 0.0 0.0
 .48214275 0.0 0.0 0.0
 0.0 1.0000000 0.0 0.0
 0.0 0.0 1.0000000 0.0
 0.0 0.0 0.0 1.0000000

/Ti.DZ..14s9p5d.8s5p3d.
 H.Horn, Feb. 92
TI       (14s9p5d) -> [8s5p3d]

	22.000000 2
* S-type functions
    14 8
        247254.20472
        37060.747577
        8435.1700312
        2389.8299020
        782.23119870
        286.06776406
        113.20644330
        45.845720390
        11.328524813
        4.8125219381
        1.3957658690
        .56327895193
        .80512959315E-01
        .31926457804E-01
 -.22396329076E-03 0.0 0.0 0.0 0.0 0.0 0.0 0.0
 -.17371198985E-02 0.0 0.0 0.0 0.0 0.0 0.0 0.0
 -.90439019438E-02 0.0 0.0 0.0 0.0 0.0 0.0 0.0
 -.36850817255E-01 0.0 0.0 0.0 0.0 0.0 0.0 0.0
 -.12004207715 0.0 0.0 0.0 0.0 0.0 0.0 0.0
 -.29336894009 0.0 0.0 0.0 0.0 0.0 0.0 0.0
 0.0 -.39817814792 0.0 0.0 0.0 0.0 0.0 0.0
 0.0 -.29713034199 0.0 0.0 0.0 0.0 0.0 0.0
 0.0 0.0 1.0000000000 0.0 0.0 0.0 0.0 0.0
 0.0 0.0 0.0 1.0000000000 0.0 0.0 0.0 0.0
 0.0 0.0 0.0 0.0 1.0000000000 0.0 0.0 0.0
 0.0 0.0 0.0 0.0 0.0 1.0000000000 0.0 0.0
 0.0 0.0 0.0 0.0 0.0 0.0 1.0000000000 0.0
 0.0 0.0 0.0 0.0 0.0 0.0 0.0 1.0000000000
* P-type functions
    9 5
        1298.4162107
        307.75625781
        99.131233927
        37.345305562
        15.210712602
        6.4368981418
        2.5843928911
        1.0229993308
        .38233959020
 .20247352194E-02 0.0 0.0 0.0 0.0
 .16472586005E-01 0.0 0.0 0.0 0.0
 .77667284617E-01 0.0 0.0 0.0 0.0
 0.0 .24328819985 0.0 0.0 0.0
 0.0 .44259359185 0.0 0.0 0.0
 0.0 .38049635541 0.0 0.0 0.0
 0.0 0.0 1.0000000000 0.0 0.0
 0.0 0.0 0.0 1.0000000000 0.0
 0.0 0.0 0.0 0.0 1.0000000000
* D-type functions
    5 3
        23.465751001
        6.3332300693
        2.0764079893
        .69041160389
        .21092515216
 .26542832716E-01 0.0 0.0
 .13802284593 0.0 0.0
 .35327842933 0.0 0.0
 0.0 1.0000000000 0.0
 0.0 0.0 1.0000000000

/V.DZ..14s9p5d.8s5p3d.
 H.Horn, Feb. 1992
V       (14s9p5d) -> [8s5p3d]

	23.000000 2
* S-type functions
    14 8
        271348.15944
        40672.005078
        9257.0761385
        2622.7328773
        858.59480185
        314.19418650
        124.47862127
        50.469399309
        12.513846911
        5.3447758082
        1.5755631295
        .63069033066
        .87954441572E-01
        .34296919737E-01
 .21967094878E-03 0.0 0.0 0.0 0.0 0.0 0.0 0.0
 .17038606460E-02 0.0 0.0 0.0 0.0 0.0 0.0 0.0
 .88713720876E-02 0.0 0.0 0.0 0.0 0.0 0.0 0.0
 .36154324518E-01 0.0 0.0 0.0 0.0 0.0 0.0 0.0
 .11780890759 0.0 0.0 0.0 0.0 0.0 0.0 0.0
 .28802536159 0.0 0.0 0.0 0.0 0.0 0.0 0.0
 0.0 .42757917273 0.0 0.0 0.0 0.0 0.0 0.0
 0.0 .32144231329 0.0 0.0 0.0 0.0 0.0 0.0
 0.0 0.0 1.0000000000 0.0 0.0 0.0 0.0 0.0
 0.0 0.0 0.0 1.0000000000 0.0 0.0 0.0 0.0
 0.0 0.0 0.0 0.0 1.0000000000 0.0 0.0 0.0
 0.0 0.0 0.0 0.0 0.0 1.0000000000 0.0 0.0
 0.0 0.0 0.0 0.0 0.0 0.0 1.0000000000 0.0
 0.0 0.0 0.0 0.0 0.0 0.0 0.0 1.0000000000
* P-type functions
    9 5
        1450.0319327
        343.75049884
        110.82521708
        41.822464546
        17.088073710
        7.2613218939
        2.9458145262
        1.1650209680
        .43399378389
 -.19517397096E-02 0.0 0.0 0.0 0.0
 -.15922014237E-01 0.0 0.0 0.0 0.0
 -.75385260252E-01 0.0 0.0 0.0 0.0
 0.0 -.23665641316 0.0 0.0 0.0
 0.0 -.43346919871 0.0 0.0 0.0
 0.0 -.37433001350 0.0 0.0 0.0
 0.0 0.0 1.0000000000 0.0 0.0
 0.0 0.0 0.0 1.0000000000 0.0
 0.0 0.0 0.0 0.0 1.0000000000
* D-type functions
    5 3
        27.360335864
        7.4542765527
        2.4632270217
        .82499542440
        .25262970572
 .26644270033E-01 0.0 0.0
 .13999436471 0.0 0.0
 .35761186435 0.0 0.0
 0.0 1.0000000000 0.0
 0.0 0.0 1.0000000000

/Zn.DZ..14s9p5d.8s5p3d.
 H.Horn, Feb. 1992
ZN       (14s9p5d) -> [8s5p3d]

	30.000000 2
* S-type functions
    14 8
        472745.94164
        70858.099484
        16127.639733
        4569.7614320
        1496.9765379
        549.25646888
        218.59011012
        89.068823328
        22.475751693
        9.7836990852
        3.0476097903
        1.1751310173
        .14336738100
        .50761504256E-01
 -.21700994032E-03 0.0 0.0 0.0 0.0 0.0 0.0 0.0
 -.16833756616E-02 0.0 0.0 0.0 0.0 0.0 0.0 0.0
 -.87677495791E-02 0.0 0.0 0.0 0.0 0.0 0.0 0.0
 -.35768760798E-01 0.0 0.0 0.0 0.0 0.0 0.0 0.0
 -.11680698543 0.0 0.0 0.0 0.0 0.0 0.0 0.0
 -.28670653074 0.0 0.0 0.0 0.0 0.0 0.0 0.0
 0.0 -.42684317028 0.0 0.0 0.0 0.0 0.0 0.0
 0.0 -.33251989916 0.0 0.0 0.0 0.0 0.0 0.0
 0.0 0.0 1.0000000000 0.0 0.0 0.0 0.0 0.0
 0.0 0.0 0.0 1.0000000000 0.0 0.0 0.0 0.0
 0.0 0.0 0.0 0.0 1.0000000000 0.0 0.0 0.0
 0.0 0.0 0.0 0.0 0.0 1.0000000000 0.0 0.0
 0.0 0.0 0.0 0.0 0.0 0.0 1.0000000000 0.0
 0.0 0.0 0.0 0.0 0.0 0.0 0.0 1.0000000000
* P-type functions
    9 5
        2738.9909849
        649.72995198
        210.29129074
        79.954360369
        33.131290448
        14.326395837
        6.0658646628
        2.3753719617
        .86596317258
 -.18709110259E-02 0.0 0.0 0.0 0.0
 -.15461531483E-01 0.0 0.0 0.0 0.0
 -.74752628792E-01 0.0 0.0 0.0 0.0
 0.0 -.23286955460 0.0 0.0 0.0
 0.0 -.44019359575 0.0 0.0 0.0
 0.0 -.38736391445 0.0 0.0 0.0
 0.0 0.0 1.0000000000 0.0 0.0
 0.0 0.0 0.0 1.0000000000 0.0
 0.0 0.0 0.0 0.0 1.0000000000
* D-type functions
    5 3
        56.079664803
        15.748259098
        5.3098927689
        1.7734652510
        .51963233927
 .29598233794E-01 0.0 0.0
 .15879184876 0.0 0.0
 .37984178082 0.0 0.0
 0.0 1.0000000000 0.0
 0.0 0.0 1.0000000000

