************************************************************************
* This file is part of OpenMolcas.                                     *
*                                                                      *
* OpenMolcas is free software; you can redistribute it and/or modify   *
* it under the terms of the GNU Lesser General Public License, v. 2.1. *
* OpenMolcas is distributed in the hope that it will be useful, but it *
* is provided "as is" and without any express or implied warranties.   *
* For more details see the full text of the license in the file        *
* LICENSE or in <http://www.gnu.org/licenses/>.                        *
************************************************************************
*=*=*=*=*=*=*=*=*=*=*=*=*=*=*=*=*=*=*=*=*=*=*=*=*=*=*=*=*=*=*=*=*=*=*=*=*=*=*=*=
*=*=*=*=*=*=*=*=*=*=*=*=*=*=*=*=*=*=*=*=*=*=*=*=*=*=*=*=*=*=*=*=*=*=*=*=*=*=*=*=
*                                                                              *
*                  ********************                                        *
*                  * The AIMP Library *                                        *
*                  ********************                                        *
*                                                                              *
*    This library contains:                                                    *
*                                                                              *
*    (C)  Core Ab Initio Model Potentials (relativistic and nonrelativistic)   *
*                      and                                                     *
*    (E)  Embedding Ab Initio Model Potentials                                 *
*                                                                              *
*=*=*=*=*=*=*=*=*=*=*=*=*=*=*=*=*=*=*=*=*=*=*=*=*=*=*=*=*=*=*=*=*=*=*=*=*=*=*=*=
*                  Please, report any bug, deficiency, or suggestion regarding *
*                  this library to Luis Seijo (luis.seijo@uam.es). Thank you.  *
*=*=*=*=*=*=*=*=*=*=*=*=*=*=*=*=*=*=*=*=*=*=*=*=*=*=*=*=*=*=*=*=*=*=*=*=*=*=*=*=
*                                                                              *
*                                                                              *
*                                                                              *
*                                                                              *
********************************************************************************
* CORE AIMP CONTENTS                                                           *
********************************************************************************
* C. Core AIMPs                                                                *
*    C.1. Cowan-Griffin-relativistic core AIMPs: CG-AIMP                       *
*           MGE, TME, La, {Ln}, {An}             [missing Fr,Ra,Ac]            *
*    C.2. Non-relativistic core AIMPs: NR-AIMP                                 *
*           MGE, TME, La                         [missing Fr,Ra,{Ln},Ac,{An}]  *
*    C.3. Douglas-Kroll (No-Pair) relativistic core AIMPs: NP-AIMP, DK3-AIMP   *
*           TME, {Ln}, {An}                      [missing MGE,La,{Ln},Ac,{An}] *
********************************************************************************
* EMBEDDING AIMP CONTENTS                                                      *
********************************************************************************
* E. Embedding AIMPs                                                           *
*    E.1. Elpasolites                                                          *
*         E.1.1. K2NaGaF6                                                      *
*           E.1.1.a. K2NaGaF6 (a=8.246 A)                                      *
*           E.1.1.b. K2NaGaF6 (a=8.000 A; 60 Kbar)                             *
*         E.1.2. Cs2NaYCl6                                                     *
*           E.1.2.a. Cs2NaYCl6 (a=10.7396 A, x=0.2439)                         *
*           E.1.2.b Cs2NaYCl6 Delta-a/a=-0.6% (a=10.6752 A, x=0.2439)          *
*           E.1.2.c Cs2NaYCl6 Delta-a/a=-1.8% (a=10.5463 A, x=0.2439)          *
*           E.1.2.d Cs2NaYCl6 Delta-a/a=-3.1% (a=10.4067 A, x=0.2439)          *
*           E.1.2.e Cs2NaYCl6 Delta-a/a=-3.6% (a=10.3530 A, x=0.2439)          *
*         E.1.3. Cs2NaYBr6                                                     *
*           E.1.3.a. Cs2NaYBr6 (a=11.3047 A, x=0.2446)                         *
*         E.1.4. Cs2NaYF6                                                      *
*           E.1.4.a. Cs2NaYF6 (a=9.075 A, x=0.24)                              *
*    E.2. Perovskites                                                          *
*         E.2.1. KMgF3                                                         *
*           E.2.1.a. KMgF3 (a=3.973 A)                                         *
*         E.2.2. KZnF3                                                         *
*           E.2.2.a. KZnF3 (a=4.054 A)                                         *
*         E.2.3. KCdF3                                                         *
*           E.2.3.a. KCdF3 (a=4.302 A)                                         *
*         E.2.4. CsCaF3                                                        *
*           E.2.4.a. CsCaF3 (a=4.526 A)                                        *
*         E.2.5. CsCaBr3                                                       *
*           E.2.5.a. CsCaBr3 (a=5.690 A)                                       *
*         E.2.6. CaFeO3                                                        *
*           E.2.6.a. CaFeO3                                                    *
*         E.2.7. LaMnO3                                                        *
*           E.2.7.a. LaMnO3                                                    *
*         E.2.8. CaMnO3                                                        *
*           E.2.8.a. CaMnO3                                                    *
*    E.3. Rocksalt structure oxides and halides                                *
*         E.3.1. MgO                                                           *
*           E.3.1.a. MgO (a=4.2112 A)                                          *
*         E.3.2. CaO                                                           *
*           E.3.2.a. CaO (a=4.8105 A)                                          *
*         E.3.3. SrO                                                           *
*           E.3.3.a. SrO (a=5.1602 A)                                          *
*         E.3.4. NiO                                                           *
*           E.3.4.a. NiO (a=4.164 A)                                           *
*         E.3.5. LiF                                                           *
*           E.3.5.a. LiF (a=4.028 A)                                           *
*         E.3.6. NaF                                                           *
*           E.3.6.a. NaF (a=4.634 A)                                           *
*         E.3.7. KF                                                            *
*           E.3.7.a. KF (a=5.348 A)                                            *
*         E.3.8. NaCl                                                          *
*           E.3.8.a. NaCl (a=5.64056 A)                                        *
*         E.3.9. KCl                                                           *
*           E.3.9.a. KCl (a=6.2933 A)                                          *
*         E.3.10. MnO                                                          *
*           E.3.10.a. MnO (a=4.267 A)                                          *
*         E.3.11. CoO                                                          *
*           E.3.11.a. CoO (a=4.4.03145 A)                                      *
*    E.4. Fluorites                                                            *
*         E.4.1. CaF2                                                          *
*           E.4.1.a. CaF2 (a=5.46294 A)                                        *
*         E.4.2. SrF2                                                          *
*           E.4.2.a. SrF2 (a=5.796 A)                                          *
*           E.4.2.b. SrF2 (a=5.7647 A; Da/a=-.0054; P=0.4 GPa; K=24.65 GPa)    *
*           E.4.2.c. SrF2 (a=5.7334 A; Da/a=-.0108; P=0.8 GPa; K=24.65 GPa)    *
*           E.4.2.d. SrF2 (a=5.7021 A; Da/a=-.0162; P=1.2 GPa; K=24.65 GPa)    *
*           E.4.2.e. SrF2 (a=5.6708 A; Da/a=-.0216; P=1.6 GPa; K=24.65 GPa)    *
*           E.4.2.f. SrF2 (a=5.4825 A; Da/a=-.0541; P=4.0 GPa; K=24.65 GPa)    *
*           E.4.2.g. SrF2 (a=5.1690 A; Da/a=-.1082; P=8.0 GPa; K=24.65 GPa)    *
*           E.4.2.h. SrF2 (a=4.8555 A; Da/a=-.1623; P=12.0 GPa; K=24.65 GPa)   *
*         E.4.3. BaF2                                                          *
*           E.4.3.a. BaF2 (a=6.2001 A)                                         *
*         E.4.4. CdF2                                                          *
*           E.4.4.a. CdF2                                                      *
*    E.5. Miscellany                                                           *
*         E.5.1. Cs2GeF6                                                       *
*           E.5.1.a. Cs2GeF6 (a=9.021 A, x=0.20)                               *
*         E.5.2. Cs2ZrCl6                                                      *
*           E.5.2.a. Cs2ZrCl6 (a=10.407 A, x=0.235)                            *
*         E.5.3. YVO4                                                          *
*           E.5.3.a. YVO4 (a=7.123 A, c=6.292 A, yO=0.4346, zO=0.2023)         *
*         E.5.4. Al2O3  D63d(R3c)                                              *
*           E.5.4.a. Al2O3 (D63d(R3c) a=4.76 A c=12.995 A z=0.35219 x=0.69367) *
*         E.5.5. SrB4O7 (SrB4O7)                                               *
*           E.5.5.a. SrB4O7                                                    *
*         E.5.6. Lu2O3                                                         *
*           E.5.6.a. Lu2O3                                                     *
*    E.6. Zeolite related data                                                 *
*         E.6.1. Quartz                                                        *
*           E.6.1.a. Quartz                                                    *
*         E.6.2. Dehydrated Na-A zeolite                                       *
*           E.6.2.a. Dehydrated Na-A zeolite [1 aimp for 3 different oxygens]  *
*           E.6.2.b. Dehydrated Na-A zeolite [3 aimp's for 3 different oxygens]*
*    E.7. Zincblende                                                           *
*         E.7.1. CuF                                                           *
*           E.7.1.a. CuF (a=4.255 A)                                           *
*         E.7.2. CuCl                                                          *
*           E.7.2.a. CuCl (a=5.40 A)                                           *
*         E.7.3. CuBr                                                          *
*           E.7.3.a. CuBr (a=5.69 A)                                           *
*    E.8. Garnets                                                              *
*         E.8.01. Y3Al5O12 (YAG)                                               *
*         E.8.02. Gd3Al5O12 (GdAG)                                             *
*         E.8.03. Er3Al5O12 (ErAG)                                             *
*         E.8.04. Yb3Al5O12 (YbAG)                                             *
*         E.8.05. Lu3Al5O12 (LuAG)                                             *
*         E.8.06. Y3Ga5O12 (YGG)                                               *
*         E.8.07. Nd3Ga5O12 (NdGG)                                             *
*         E.8.08. Sm3Ga5O12 (SmGG)                                             *
*         E.8.09. Gd3Ga5O12 (GdGG)                                             *
*         E.8.10. Tb3Ga5O12 (TbGG)                                             *
*         E.8.11. Dy3Ga5O12 (DyGG)                                             *
*         E.8.12. Ho3Ga5O12 (HoGG)                                             *
*         E.8.13. Yb3Ga5O12 (YbGG)                                             *
*         E.8.14. Lu3Ga5O12 (LuGG)                                             *
*         E.8.15. Mg3Al2Si3O12 (Pyrope)                                        *
*         E.8.16. Ca3Al2Si3O12 (Grossular)                                     *
*         E.8.17. Mn3Al2Si3O12 (Spessartine)                                   *
*         E.8.18. Fe3Al2Si3O12 (Almandine)                                     *
*         E.8.19. Ca3Fe2Si3O12 (Andradite)                                     *
*         E.8.20. Ca3Sc2Si3O12                                                 *
*         E.8.21. Lu2CaMg2Si3O12                                               *
********************************************************************************
*                                                                              *
*                                                                              *
*                                                                              *
*                                                                              *
*                                                                              *
*                                                                              *
*                                                                              *
*                                                                              *
********************************************************************************
*                                                                              *
*             Core Ab Initio Model Potential Library                           *
*                                                                              *
********************************************************************************
*                  Please, report any bug, deficiency, or suggestion regarding *
*                  this library to Luis Seijo (luis.seijo@uam.es). Thank you.  *
********************************************************************************
* CORE AIMP CONTENTS                                                           *
********************************************************************************
* C. Core AIMPs                                                                *
*    C.1. Cowan-Griffin-relativistic core AIMPs: CG-AIMP                       *
*           MGE, TME, La, {Ln}, {An}             [missing Fr,Ra,Ac]            *
*    C.2. Non-relativistic core AIMPs: NR-AIMP                                 *
*           MGE, TME, La                         [missing Fr,Ra,{Ln},Ac,{An}]  *
*    C.3. Douglas-Kroll (No-Pair) relativistic core AIMPs: NP-AIMP, DK3-AIMP   *
*           TME, {Ln}, {An}                      [missing MGE,La,{Ln},Ac,{An}] *
********************************************************************************
* DETAILED CORE AIMP CONTENTS                                                  *
********************************************************************************
*                                                               recommended    *
*                                                               contraction    *
* C. Core AIMPs                                                                *
*    C.1. Cowan-Griffin-relativistic core AIMPs: CG-AIMP                       *
*       C.1.1. Main Group Elements                                             *
*         C.1.1.1. Alkaline Elements                                           *
*           /Li.ECP.Barandiaran.5s1p.1s1p.1e-CG-AIMP.               2s1p       *
*           /Na.ECP.Barandiaran.7s6p.1s2p.7e-CG-AIMP.               2s3p       *
*           /K.ECP.Barandiaran.9s7p.1s2p.7e-CG-AIMP.                2s3p       *
*           /Rb.ECP.Barandiaran.11s9p6d.1s2p1d.7e-CG-AIMP.          2s3p1d     *
*           /Cs.ECP.Barandiaran.13s11p8d.1s2p1d.7e-CG-AIMP.         3s3p1d     *
*         C.1.1.2. Alkaline Earth Elements                                     *
*           /Be.ECP.Barandiaran.5s1p.1s1p.2e-CG-AIMP.               2s1p       *
*           /Mg.ECP.Barandiaran.7s6p1d.1s2p1d.8e-CG-AIMP.           2s3p1d     *
*           /Ca.ECP.Barandiaran.9s7p5d.1s2p3d.8e-CG-AIMP.           2s3p3d     *
*           /Sr.ECP.Barandiaran.11s9p6d.1s2p1d.8e-CG-AIMP.          3s3p3d     *
*           /Ba.ECP.Barandiaran.13s11p8d.1s2p1d.8e-CG-AIMP.         3s3p3d     *
*         C.1.1.3. Group IIIA Elements                                         *
*           /B.ECP.Barandiaran.5s5p1d.1s1p1d.3e-CG-AIMP.            2s3p1d     *
*           /Al.ECP.Barandiaran.7s6p1d.1s1p1d.3e-CG-AIMP.           2s3p1d     *
*           /Ga.ECP.Barandiaran.9s8p4d.1s1p2d.3e-CG-AIMP.           3s3p2d     *
*           /In.ECP.Barandiaran.11s10p7d.1s1p2d.13e-CG-AIMP.        3s3p3d     *
*           /Tl.ECP.Barandiaran.13s12p8d5f.1s1p2d1f.13e-CG-AIMP.    3s4p3d2f   *
*         C.1.1.4. Group IVA Elements                                          *
*           /C.ECP.Barandiaran.5s5p1d.1s1p1d.4e-CG-AIMP.            2s3p1d     *
*           /Si.ECP.Barandiaran.7s6p1d.1s1p1d.4e-CG-AIMP.           2s3p1d     *
*           /Ge.ECP.Barandiaran.9s8p4d.1s1p2d.4e-CG-AIMP.           3s3p2d     *
*           /Sn.ECP.Barandiaran.11s10p7d.1s1p2d.14e-CG-AIMP.        3s3p3d     *
*           /Pb.ECP.Barandiaran.13s12p8d5f.1s1p2d1f.14e-CG-AIMP.    3s4p3d2f   *
*         C.1.1.5. Group VA Elements                                           *
*           /N.ECP.Barandiaran.5s5p1d.1s1p1d.5e-CG-AIMP.            2s3p1d     *
*           /P.ECP.Barandiaran.7s6p1d.1s1p1d.5e-CG-AIMP.            2s3p1d     *
*           /As.ECP.Barandiaran.9s8p4d.1s1p2d.5e-CG-AIMP.           3s3p2d     *
*           /Sb.ECP.Barandiaran.11s10p7d.1s1p2d.15e-CG-AIMP.        3s3p3d     *
*           /Bi.ECP.Barandiaran.13s12p8d5f.1s1p2d1f.15e-CG-AIMP.    3s4p3d2f   *
*         C.1.1.6. Group VIA Elements (Calcogens)                              *
*           /O.ECP.Barandiaran.5s6p1d.1s2p1d.6e-CG-AIMP.            2s4p1d     *
*           /S.ECP.Barandiaran.7s6p1d.1s1p1d.6e-CG-AIMP.            2s3p1d     *
*           /Se.ECP.Barandiaran.9s8p4d.1s1p2d.6e-CG-AIMP.           3s3p2d     *
*           /Te.ECP.Barandiaran.11s10p7d.1s1p2d.16e-CG-AIMP.        3s3p3d     *
*           /Po.ECP.Barandiaran.13s12p8d5f.1s1p2d1f.16e-CG-AIMP.    3s4p3d2f   *
*         C.1.1.7. Group VIIA Elements (Halogens)                              *
*           /F.ECP.Barandiaran.5s6p1d.1s2p1d.7e-CG-AIMP.            2s4p1d     *
*           /Cl.ECP.Barandiaran.7s7p1d.1s2p1d.7e-CG-AIMP.           2s4p1d     *
*           /Br.ECP.Barandiaran.9s8p4d.1s1p2d.7e-CG-AIMP.           3s4p2d     *
*           /I.ECP.Barandiaran.11s10p7d.1s1p2d.17e-CG-AIMP.         3s4p3d     *
*           /At.ECP.Barandiaran.13s12p8d5f.1s1p2d1f.17e-CG-AIMP.    3s4p3d2f   *
*         C.1.1.8. Group 0 Elements (Noble Gases)                              *
*           /Ne.ECP.Barandiaran.5s5p1d.1s1p1d.8e-CG-AIMP.           2s3p1d     *
*           /Ar.ECP.Barandiaran.7s6p1d.1s1p1d.8e-CG-AIMP.           2s3p1d     *
*           /Kr.ECP.Barandiaran.9s8p4d.1s1p2d.8e-CG-AIMP.           3s3p2d     *
*           /Xe.ECP.Barandiaran.11s10p7d.1s1p2d.18e-CG-AIMP.        3s3p3d     *
*           /Rn.ECP.Barandiaran.13s12p8d5f.1s1p2d1f.18e-CG-AIMP.    3s4p3d2f   *
*       C.1.2. Transition Metal Elements                                       *
*         C.1.2.1. First Series Transition Metal Elements (core [Mg])          *
*           /Sc.ECP.Barandiaran.9s6p6d.1s2p2d.9e-CG-AIMP.           3s3p4d     *
*           /Ti.ECP.Barandiaran.9s6p6d.1s2p2d.10e-CG-AIMP.          3s3p4d     *
*           /V.ECP.Barandiaran.9s6p6d.1s2p2d.11e-CG-AIMP.           3s3p4d     *
*           /Cr.ECP.Barandiaran.9s6p6d.1s2p2d.12e-CG-AIMP.          3s3p4d     *
*           /Mn.ECP.Barandiaran.9s6p6d.1s2p2d.13e-CG-AIMP.          3s3p4d     *
*           /Fe.ECP.Barandiaran.9s6p6d.1s2p2d.14e-CG-AIMP.          3s3p4d     *
*           /Co.ECP.Barandiaran.9s6p6d.1s2p2d.15e-CG-AIMP.          3s3p4d     *
*           /Ni.ECP.Barandiaran.9s6p6d.1s2p2d.16e-CG-AIMP.          3s3p4d     *
*           /Cu.ECP.Barandiaran.9s6p6d.1s2p2d.17e-CG-AIMP.          3s3p4d     *
*           /Zn.ECP.Barandiaran.9s6p5d.1s2p1d.18e-CG-AIMP.          3s3p3d     *
*           /Sc.ECP.Barandiaran.9s6p6d3f.1s2p2d1f.9e-CG-AIMP.       3s3p4d1f   *
*           /Ti.ECP.Barandiaran.9s6p6d3f.1s2p2d1f.10e-CG-AIMP.      3s3p4d1f   *
*           /V.ECP.Barandiaran.9s6p6d3f.1s2p2d1f.11e-CG-AIMP.       3s3p4d1f   *
*           /Cr.ECP.Barandiaran.9s6p6d3f.1s2p2d1f.12e-CG-AIMP.      3s3p4d1f   *
*           /Mn.ECP.Barandiaran.9s6p6d3f.1s2p2d1f.13e-CG-AIMP.      3s3p4d1f   *
*           /Fe.ECP.Barandiaran.9s6p6d3f.1s2p2d1f.14e-CG-AIMP.      3s3p4d1f   *
*           /Co.ECP.Barandiaran.9s6p6d3f.1s2p2d1f.15e-CG-AIMP.      3s3p4d1f   *
*           /Ni.ECP.Barandiaran.9s6p6d3f.1s2p2d1f.16e-CG-AIMP.      3s3p4d1f   *
*           /Cu.ECP.Barandiaran.9s6p6d3f.1s2p2d1f.17e-CG-AIMP.      3s3p4d1f   *
*           /Zn.ECP.Barandiaran.9s6p5d3f.1s2p1d1f.18e-CG-AIMP.      3s3p3d1f   *
*         C.1.2.2. Second Series Transition Metal Elements (core [Zn])         *
*           /Y.ECP.Barandiaran.11s8p7d.1s2p2d.9e-CG-AIMP.           3s3p4d     *
*           /Zr.ECP.Barandiaran.11s8p7d.1s2p2d.10e-CG-AIMP.         3s3p4d     *
*           /Nb.ECP.Barandiaran.11s8p7d.1s2p2d.11e-CG-AIMP.         3s3p4d     *
*           /Mo.ECP.Barandiaran.11s8p7d.1s2p2d.12e-CG-AIMP.         3s3p4d     *
*           /Tc.ECP.Barandiaran.11s8p7d.1s2p2d.13e-CG-AIMP.         3s3p4d     *
*           /Ru.ECP.Barandiaran.11s8p7d.1s2p2d.14e-CG-AIMP.         3s3p4d     *
*           /Rh.ECP.Barandiaran.11s8p7d.1s2p2d.15e-CG-AIMP.         3s3p4d     *
*           /Pd.ECP.Barandiaran.11s8p7d.1s2p2d.16e-CG-AIMP.         3s3p4d     *
*           /Ag.ECP.Barandiaran.11s8p7d.1s2p2d.17e-CG-AIMP.         3s3p4d     *
*           /Cd.ECP.Barandiaran.11s8p6d.1s2p1d.18e-CG-AIMP.         3s3p3d     *
*           /Y.ECP.Barandiaran.11s8p7d3f.1s2p2d1f.9e-CG-AIMP.       3s3p4d1f   *
*           /Zr.ECP.Barandiaran.11s8p7d3f.1s2p2d1f.10e-CG-AIMP.     3s3p4d1f   *
*           /Nb.ECP.Barandiaran.11s8p7d3f.1s2p2d1f.11e-CG-AIMP.     3s3p4d1f   *
*           /Mo.ECP.Barandiaran.11s8p7d3f.1s2p2d1f.12e-CG-AIMP.     3s3p4d1f   *
*           /Tc.ECP.Barandiaran.11s8p7d3f.1s2p2d1f.13e-CG-AIMP.     3s3p4d1f   *
*           /Ru.ECP.Barandiaran.11s8p7d3f.1s2p2d1f.14e-CG-AIMP.     3s3p4d1f   *
*           /Rh.ECP.Barandiaran.11s8p7d3f.1s2p2d1f.15e-CG-AIMP.     3s3p4d1f   *
*           /Pd.ECP.Barandiaran.11s8p7d3f.1s2p2d1f.16e-CG-AIMP.     3s3p4d1f   *
*           /Ag.ECP.Barandiaran.11s8p7d3f.1s2p2d1f.17e-CG-AIMP.     3s3p4d1f   *
*         C.1.2.3 Lanthanum and Third Series Transition Metal Elements         *
*           /La.ECP.Casarrubios.13s10p8d.1s2p2d.9e-CG-AIMP.         3s3p3d     *
*           /Hf.ECP.Casarrubios.13s10p9d5f.1s2p2d1f.10e-CG-AIMP.    3s3p4d2f   *
*           /Ta.ECP.Casarrubios.13s10p9d5f.1s2p2d1f.11e-CG-AIMP.    3s3p4d2f   *
*           /W.ECP.Casarrubios.13s10p9d5f.1s2p2d1f.12e-CG-AIMP.     3s3p4d2f   *
*           /Re.ECP.Casarrubios.13s10p9d5f.1s2p2d1f.13e-CG-AIMP.    3s3p4d2f   *
*           /Os.ECP.Casarrubios.13s10p9d5f.1s2p2d1f.14e-CG-AIMP.    3s3p4d2f   *
*           /Ir.ECP.Casarrubios.13s10p9d5f.1s2p2d1f.15e-CG-AIMP.    3s3p4d2f   *
*           /Pt.ECP.Casarrubios.13s10p9d5f.1s2p2d1f.16e-CG-AIMP.    3s3p4d2f   *
*           /Pt.ECP.Casarrubios.13s10p9d5f.1s2p2d1f.16e-CG-AIMP-ave. 3s3p4d2f  *
*           /Au.ECP.Casarrubios.13s10p9d5f.1s2p2d1f.17e-CG-AIMP.    3s3p4d2f   *
*           /Hg.ECP.Casarrubios.13s10p9d5f.1s2p2d1f.18e-CG-AIMP.    3s3p4d2f   *
*       C.1.3. f-Elements                                                      *
*         C.1.3.1.a. Lanthanide Elements (core [Kr,4d])                        *
*           /Ce.ECP.Diaz-Megias.14s10p9d8f3g.2s1p1d1f1g.12e-CG-AIMP. 6s5p5d4f1g*
*           /Pr.ECP.Seijo.14s10p9d8f3g.2s1p1d1f1g.13e-CG-AIMP.      6s5p5d4f1g *
*           /Nd.ECP.Seijo.14s10p9d8f3g.2s1p1d1f1g.14e-CG-AIMP.      6s5p5d4f1g *
*           /Pm.ECP.Seijo.14s10p9d8f3g.2s1p1d1f1g.15e-CG-AIMP.      6s5p5d4f1g *
*           /Sm.ECP.Seijo.14s10p9d8f3g.2s1p1d1f1g.16e-CG-AIMP.      6s5p5d4f1g *
*           /Eu.ECP.Seijo.14s10p9d8f3g.2s1p1d1f1g.17e-CG-AIMP.      6s5p5d4f1g *
*           /Gd.ECP.Seijo.14s10p9d8f3g.2s1p1d1f1g.18e-CG-AIMP.      6s5p5d4f1g *
*           /Tb.ECP.Seijo.14s10p9d8f3g.2s1p1d1f1g.19e-CG-AIMP.      6s5p5d4f1g *
*           /Dy.ECP.Seijo.14s10p9d8f3g.2s1p1d1f1g.20e-CG-AIMP.      6s5p5d4f1g *
*           /Ho.ECP.Seijo.14s10p9d8f3g.2s1p1d1f1g.21e-CG-AIMP.      6s5p5d4f1g *
*           /Er.ECP.Seijo.14s10p9d8f3g.2s1p1d1f1g.22e-CG-AIMP.      6s5p5d4f1g *
*           /Tm.ECP.Seijo.14s10p9d8f3g.2s1p1d1f1g.23e-CG-AIMP.      6s5p5d4f1g *
*           /Yb.ECP.Seijo.14s10p9d8f3g.2s1p1d1f1g.24e-CG-AIMP.      6s5p5d4f1g *
*           /Lu.ECP.Seijo.14s10p9d8f3g.2s1p1d1f1g.25e-CG-AIMP.      6s5p5d4f1g *
*         C.1.3.1.b. Lanthanide Elements (core [Kr])                           *
*           /Ce.ECP.Seijo.14s10p10d8f3g.2s1p2d1f1g.22e-CG-AIMP.     6s5p6d4f1g *
*           /Pr.ECP.Seijo.14s10p10d8f3g.2s1p2d1f1g.23e-CG-AIMP.     6s5p6d4f1g *
*           /Nd.ECP.Seijo.14s10p10d8f3g.2s1p2d1f1g.24e-CG-AIMP.     6s5p6d4f1g *
*           /Pm.ECP.Seijo.14s10p10d8f3g.2s1p2d1f1g.25e-CG-AIMP.     6s5p6d4f1g *
*           /Sm.ECP.Seijo.14s10p10d8f3g.2s1p2d1f1g.26e-CG-AIMP.     6s5p6d4f1g *
*           /Eu.ECP.Seijo.14s10p10d8f3g.2s1p2d1f1g.27e-CG-AIMP.     6s5p6d4f1g *
*           /Gd.ECP.Seijo.14s10p10d8f3g.2s1p2d1f1g.28e-CG-AIMP.     6s5p6d4f1g *
*           /Tb.ECP.Seijo.14s10p10d8f3g.2s1p2d1f1g.29e-CG-AIMP.     6s5p6d4f1g *
*           /Dy.ECP.Seijo.14s10p10d8f3g.2s1p2d1f1g.30e-CG-AIMP.     6s5p6d4f1g *
*           /Ho.ECP.Seijo.14s10p10d8f3g.2s1p2d1f1g.31e-CG-AIMP.     6s5p6d4f1g *
*           /Er.ECP.Seijo.14s10p10d8f3g.2s1p2d1f1g.32e-CG-AIMP.     6s5p6d4f1g *
*           /Tm.ECP.Seijo.14s10p10d8f3g.2s1p2d1f1g.33e-CG-AIMP.     6s5p6d4f1g *
*           /Yb.ECP.Seijo.14s10p10d8f3g.2s1p2d1f1g.34e-CG-AIMP.     6s5p6d4f1g *
*           /Lu.ECP.Seijo.14s10p10d8f3g.2s1p2d1f1g.35e-CG-AIMP.     6s5p6d4f1g *
*         C.1.3.1.c. Lanthanide Elements (core [M])                            *
*           /Ce.ECP.Seijo.14s10p10d8f3g.3s2p2d1f1g.30e-CG-AIMP.     7s6p6d4f1g *
*           /Pr.ECP.Seijo.14s10p10d8f3g.3s2p2d1f1g.31e-CG-AIMP.     7s6p6d4f1g *
*           /Nd.ECP.Seijo.14s10p10d8f3g.3s2p2d1f1g.32e-CG-AIMP.     7s6p6d4f1g *
*           /Pm.ECP.Seijo.14s10p10d8f3g.3s2p2d1f1g.33e-CG-AIMP.     7s6p6d4f1g *
*           /Sm.ECP.Seijo.14s10p10d8f3g.3s2p2d1f1g.34e-CG-AIMP.     7s6p6d4f1g *
*           /Eu.ECP.Seijo.14s10p10d8f3g.3s2p2d1f1g.35e-CG-AIMP.     7s6p6d4f1g *
*           /Gd.ECP.Seijo.14s10p10d8f3g.3s2p2d1f1g.36e-CG-AIMP.     7s6p6d4f1g *
*           /Tb.ECP.Seijo.14s10p10d8f3g.3s2p2d1f1g.37e-CG-AIMP.     7s6p6d4f1g *
*           /Dy.ECP.Seijo.14s10p10d8f3g.3s2p2d1f1g.38e-CG-AIMP.     7s6p6d4f1g *
*           /Ho.ECP.Seijo.14s10p10d8f3g.3s2p2d1f1g.39e-CG-AIMP.     7s6p6d4f1g *
*           /Er.ECP.Seijo.14s10p10d8f3g.3s2p2d1f1g.40e-CG-AIMP.     7s6p6d4f1g *
*           /Tm.ECP.Seijo.14s10p10d8f3g.3s2p2d1f1g.41e-CG-AIMP.     7s6p6d4f1g *
*           /Yb.ECP.Seijo.14s10p10d8f3g.3s2p2d1f1g.42e-CG-AIMP.     7s6p6d4f1g *
*           /Lu.ECP.Seijo.14s10p10d8f3g.3s2p2d1f1g.43e-CG-AIMP.     7s6p6d4f1g *
*         C.1.3.2.a. Actinide Elements (core [Xe,4f,5d])                       *
*           /Th.ECP.Seijo.14s10p11d9f3g.2s1p1d1f1g.12e-CG-AIMP.     6s5p5d4f1g *
*           /Pa.ECP.Seijo.14s10p11d9f3g.2s1p1d1f1g.13e-CG-AIMP.     6s5p5d4f1g *
*           /U.ECP.Seijo.14s10p11d9f3g.2s1p1d1f1g.14e-CG-AIMP.      6s5p5d4f1g *
*           /Np.ECP.Seijo.14s10p11d9f3g.2s1p1d1f1g.15e-CG-AIMP.     6s5p5d4f1g *
*           /Pu.ECP.Seijo.14s10p11d9f3g.2s1p1d1f1g.16e-CG-AIMP.     6s5p5d4f1g *
*           /Am.ECP.Seijo.14s10p11d9f3g.2s1p1d1f1g.17e-CG-AIMP.     6s5p5d4f1g *
*           /Cm.ECP.Seijo.14s10p11d9f3g.2s1p1d1f1g.18e-CG-AIMP.     6s5p5d4f1g *
*           /Bk.ECP.Seijo.14s10p11d9f3g.2s1p1d1f1g.19e-CG-AIMP.     6s5p5d4f1g *
*           /Cf.ECP.Seijo.14s10p11d9f3g.2s1p1d1f1g.20e-CG-AIMP.     6s5p5d4f1g *
*           /Es.ECP.Seijo.14s10p11d9f3g.2s1p1d1f1g.21e-CG-AIMP.     6s5p5d4f1g *
*           /Fm.ECP.Seijo.14s10p11d9f3g.2s1p1d1f1g.22e-CG-AIMP.     6s5p5d4f1g *
*           /Md.ECP.Seijo.14s10p11d9f3g.2s1p1d1f1g.23e-CG-AIMP.     6s5p5d4f1g *
*           /No.ECP.Seijo.14s10p11d9f3g.2s1p1d1f1g.24e-CG-AIMP.     6s5p5d4f1g *
*           /Lr.ECP.Seijo.14s10p11d9f3g.2s1p1d1f1g.25e-CG-AIMP.     6s5p5d4f1g *
*         C.1.3.2.b. Actinide Elements (core [Xe,4f])                          *
*           /Th.ECP.Seijo.14s10p12d9f3g.2s1p2d1f1g.22e-CG-AIMP.     6s5p6d4f1g *
*           /Pa.ECP.Seijo.14s10p12d9f3g.2s1p2d1f1g.23e-CG-AIMP.     6s5p6d4f1g *
*           /U.ECP.Seijo.14s10p12d9f3g.2s1p2d1f1g.24e-CG-AIMP.      6s5p6d4f1g *
*           /Np.ECP.Seijo.14s10p12d9f3g.2s1p2d1f1g.25e-CG-AIMP.     6s5p6d4f1g *
*           /Pu.ECP.Seijo.14s10p12d9f3g.2s1p2d1f1g.26e-CG-AIMP.     6s5p6d4f1g *
*           /Am.ECP.Seijo.14s10p12d9f3g.2s1p2d1f1g.27e-CG-AIMP.     6s5p6d4f1g *
*           /Cm.ECP.Seijo.14s10p12d9f3g.2s1p2d1f1g.28e-CG-AIMP.     6s5p6d4f1g *
*           /Bk.ECP.Seijo.14s10p12d9f3g.2s1p2d1f1g.29e-CG-AIMP.     6s5p6d4f1g *
*           /Cf.ECP.Seijo.14s10p12d9f3g.2s1p2d1f1g.30e-CG-AIMP.     6s5p6d4f1g *
*           /Es.ECP.Seijo.14s10p12d9f3g.2s1p2d1f1g.31e-CG-AIMP.     6s5p6d4f1g *
*           /Fm.ECP.Seijo.14s10p12d9f3g.2s1p2d1f1g.32e-CG-AIMP.     6s5p6d4f1g *
*           /Md.ECP.Seijo.14s10p12d9f3g.2s1p2d1f1g.33e-CG-AIMP.     6s5p6d4f1g *
*           /No.ECP.Seijo.14s10p12d9f3g.2s1p2d1f1g.34e-CG-AIMP.     6s5p6d4f1g *
*           /Lr.ECP.Seijo.14s10p12d9f3g.2s1p2d1f1g.35e-CG-AIMP.     6s5p6d4f1g *
*    C.2. Non-relativistic core AIMPs: NR-AIMP                                 *
*       C.2.1. Main Group Elements                                             *
*         C.2.1.1. Alkaline Elements                                           *
*           /Li.ECP.Huzinaga.5s1p.1s1p.1e-NR-AIMP.                  2s1p       *
*           /Na.ECP.Seijo.7s6p.1s2p.7e-NR-AIMP.                     2s3p       *
*           /K.ECP.Seijo.9s7p.1s2p.7e-NR-AIMP.                      2s3p       *
*           /Rb.ECP.Seijo.11s9p6d.1s2p1d.7e-NR-AIMP.                2s3p1d     *
*           /Cs.ECP.Seijo.13s11p8d.1s2p1d.7e-NR-AIMP.               3s3p1d     *
*         C.2.1.2. Alkaline Earth Elements                                     *
*           /Be.ECP.Huzinaga.5s1p.1s1p.2e-NR-AIMP.                  2s1p       *
*           /Mg.ECP.Seijo.7s6p1d.1s2p1d.8e-NR-AIMP.                 2s3p1d     *
*           /Ca.ECP.Seijo.9s7p5d.1s2p3d.8e-NR-AIMP.                 2s3p3d     *
*           /Sr.ECP.Seijo.11s9p7d.1s2p1d.8e-NR-AIMP.                3s3p3d     *
*           /Ba.ECP.Seijo.13s11p8d.1s2p1d.8e-NR-AIMP.               3s3p3d     *
*         C.2.1.3. Group IIIA Elements                                         *
*           /B.ECP.Huzinaga.5s5p1d.1s1p1d.3e-NR-AIMP.               2s3p1d     *
*           /Al.ECP.Huzinaga.7s6p1d.1s1p1d.3e-NR-AIMP.              2s3p1d     *
*           /Ga.ECP.Huzinaga.9s8p4d.1s1p2d.3e-NR-AIMP.              3s3p2d     *
*           /In.ECP.Barandiaran.11s10p7d.1s1p2d.13e-NR-AIMP.        3s3p3d     *
*           /Tl.ECP.Barandiaran.13s12p8d5f.1s1p2d1f.13e-NR-AIMP.    3s4p3d2f   *
*         C.2.1.4. Group IVA Elements                                          *
*           /C.ECP.Huzinaga.5s5p1d.1s1p1d.4e-NR-AIMP.               2s3p1d     *
*           /Si.ECP.Huzinaga.7s6p1d.1s1p1d.4e-NR-AIMP.              2s3p1d     *
*           /Ge.ECP.Huzinaga.9s8p4d.1s1p2d.4e-NR-AIMP.              3s3p2d     *
*           /Sn.ECP.Barandiaran.11s10p7d.1s1p2d.14e-NR-AIMP.        3s3p3d     *
*           /Pb.ECP.Barandiaran.13s12p8d5f.1s1p2d1f.14e-NR-AIMP.    3s4p3d2f   *
*         C.2.1.5. Group VA Elements                                           *
*           /N.ECP.Huzinaga.5s5p1d.1s1p1d.5e-NR-AIMP.               2s3p1d     *
*           /P.ECP.Huzinaga.7s6p1d.1s1p1d.5e-NR-AIMP.               2s3p1d     *
*           /As.ECP.Huzinaga.9s8p4d.1s1p2d.5e-NR-AIMP.              3s3p2d     *
*           /Sb.ECP.Barandiaran.11s10p7d.1s1p2d.15e-NR-AIMP.        3s3p3d     *
*           /Bi.ECP.Barandiaran.13s12p8d5f.1s1p2d1f.15e-NR-AIMP.    3s4p3d2f   *
*         C.2.1.6. Group VIA Elements (Calcogens)                              *
*           /O.ECP.Huzinaga.5s6p1d.1s2p1d.6e-NR-AIMP.               2s4p1d     *
*           /S.ECP.Huzinaga.7s6p1d.1s1p1d.6e-NR-AIMP.               2s3p1d     *
*           /Se.ECP.Huzinaga.9s8p4d.1s1p2d.6e-NR-AIMP.              3s3p2d     *
*           /Te.ECP.Barandiaran.11s10p7d.1s1p2d.16e-NR-AIMP.        3s3p3d     *
*           /Po.ECP.Barandiaran.13s12p8d5f.1s1p2d1f.16e-NR-AIMP.    3s4p3d2f   *
*         C.2.1.7. Group VIIA Elements (Halogens)                              *
*           /F.ECP.Huzinaga.5s6p1d.1s2p1d.7e-NR-AIMP.               2s4p1d     *
*           /Cl.ECP.Huzinaga.7s7p1d.1s2p1d.7e-NR-AIMP.              2s4p1d     *
*           /Br.ECP.Huzinaga.9s8p4d.1s1p2d.7e-NR-AIMP.              3s4p2d     *
*           /I.ECP.Barandiaran.11s10p7d.1s1p2d.17e-NR-AIMP.         3s4p3d     *
*           /At.ECP.Barandiaran.13s12p8d5f.1s1p2d1f.17e-NR-AIMP.    3s4p3d2f   *
*         C.2.1.8. Group 0 Elements (Noble Gases)                              *
*           /Ne.ECP.Huzinaga.5s5p1d.1s1p1d.8e-NR-AIMP.              2s3p1d     *
*           /Ar.ECP.Huzinaga.7s6p1d.1s1p1d.8e-NR-AIMP.              2s3p1d     *
*           /Kr.ECP.Huzinaga.9s8p4d.1s1p2d.8e-NR-AIMP.              3s3p2d     *
*           /Xe.ECP.Barandiaran.11s10p7d.1s1p2d.18e-NR-AIMP.        3s3p3d     *
*           /Rn.ECP.Barandiaran.13s12p8d5f.1s1p2d1f.18e-NR-AIMP.    3s4p3d2f   *
*       C.2.2. Transition Metal Elements                                       *
*         C.2.2.1. First Series Transition Metal Elements                      *
*           /Sc.ECP.Seijo.9s6p6d.1s2p2d.9e-NR-AIMP.                 3s3p4d     *
*           /Ti.ECP.Seijo.9s6p6d.1s2p2d.10e-NR-AIMP.                3s3p4d     *
*           /V.ECP.Seijo.9s6p6d.1s2p2d.11e-NR-AIMP.                 3s3p4d     *
*           /Cr.ECP.Seijo.9s6p6d.1s2p2d.12e-NR-AIMP.                3s3p4d     *
*           /Mn.ECP.Seijo.9s6p6d.1s2p2d.13e-NR-AIMP.                3s3p4d     *
*           /Fe.ECP.Seijo.9s6p6d.1s2p2d.14e-NR-AIMP.                3s3p4d     *
*           /Co.ECP.Seijo.9s6p6d.1s2p2d.15e-NR-AIMP.                3s3p4d     *
*           /Ni.ECP.Seijo.9s6p6d.1s2p2d.16e-NR-AIMP.                3s3p4d     *
*           /Cu.ECP.Seijo.9s6p6d.1s2p2d.17e-NR-AIMP.                3s3p4d     *
*           /Zn.ECP.Seijo.9s6p5d.1s2p1d.18e-NR-AIMP.                3s3p3d     *
*         C.2.2.2. Second Series Transition Metal Elements                     *
*           /Y.ECP.Barandiaran.11s8p7d.1s2p2d.9e-NR-AIMP.           3s3p4d     *
*           /Zr.ECP.Barandiaran.11s8p7d.1s2p2d.10e-NR-AIMP.         3s3p4d     *
*           /Nb.ECP.Barandiaran.11s8p7d.1s2p2d.11e-NR-AIMP.         3s3p4d     *
*           /Mo.ECP.Barandiaran.11s8p7d.1s2p2d.12e-NR-AIMP.         3s3p4d     *
*           /Tc.ECP.Barandiaran.11s8p7d.1s2p2d.13e-NR-AIMP.         3s3p4d     *
*           /Ru.ECP.Barandiaran.11s8p7d.1s2p2d.14e-NR-AIMP.         3s3p4d     *
*           /Rh.ECP.Barandiaran.11s8p7d.1s2p2d.15e-NR-AIMP.         3s3p4d     *
*           /Pd.ECP.Barandiaran.11s8p7d.1s2p2d.16e-NR-AIMP.         3s3p4d     *
*           /Ag.ECP.Barandiaran.11s8p7d.1s2p2d.17e-NR-AIMP.         3s3p4d     *
*           /Cd.ECP.Barandiaran.11s8p6d.1s2p1d.18e-NR-AIMP.         3s3p3d     *
*         C.2.2.3 Lanthanum and Third Series Transition Metal Elements         *
*           /La.ECP.Casarrubios.13s10p8d.1s2p2d.9e-NR-AIMP.         3s3p3d     *
*           /Hf.ECP.Casarrubios.13s10p9d5f.1s2p2d1f.10e-NR-AIMP.    3s3p4d2f   *
*           /Ta.ECP.Casarrubios.13s10p9d5f.1s2p2d1f.11e-NR-AIMP.    3s3p4d2f   *
*           /W.ECP.Casarrubios.13s10p9d5f.1s2p2d1f.12e-NR-AIMP.     3s3p4d2f   *
*           /Re.ECP.Casarrubios.13s10p9d5f.1s2p2d1f.13e-NR-AIMP.    3s3p4d2f   *
*           /Os.ECP.Casarrubios.13s10p9d5f.1s2p2d1f.14e-NR-AIMP.    3s3p4d2f   *
*           /Ir.ECP.Casarrubios.13s10p9d5f.1s2p2d1f.15e-NR-AIMP.    3s3p4d2f   *
*           /Pt.ECP.Casarrubios.13s10p9d5f.1s2p2d1f.16e-NR-AIMP.    3s3p4d2f   *
*           /Au.ECP.Casarrubios.13s10p9d5f.1s2p2d1f.17e-NR-AIMP.    3s3p4d2f   *
*           /Hg.ECP.Casarrubios.13s10p9d5f.1s2p2d1f.18e-NR-AIMP.    3s3p4d2f   *
*    C.3. Douglas-Kroll-Hess (No-Pair) relativistic core AIMPs:                *
*       C.3.2. Transition Metal Elements                                       *
*         C.3.2.1. First Series Transition Metal Elements (core [Ne])          *
*           /Sc.ECP.Rakowitz.9s6p6d3f.5s4p4d1f.11e-NP-AIMP.                    *
*           /Ti.ECP.Rakowitz.9s6p6d3f.5s4p4d1f.12e-NP-AIMP.                    *
*           /V.ECP.Rakowitz.9s6p6d3f.5s4p4d1f.13e-NP-AIMP.                     *
*           /Cr.ECP.Rakowitz.9s6p6d3f.5s4p4d1f.14e-NP-AIMP.                    *
*           /Mn.ECP.Rakowitz.9s6p6d3f.5s4p4d1f.15e-NP-AIMP.                    *
*           /Fe.ECP.Rakowitz.9s6p6d3f.5s4p4d1f.16e-NP-AIMP.                    *
*           /Co.ECP.Rakowitz.9s6p6d3f.5s4p4d1f.17e-NP-AIMP.                    *
*           /Ni.ECP.Rakowitz.9s6p6d3f.5s4p4d1f.18e-NP-AIMP.                    *
*           /Cu.ECP.Rakowitz.9s6p6d3f.5s4p4d1f.19e-NP-AIMP.                    *
*           /Zn.ECP.Rakowitz.9s6p6d3f.5s4p4d1f.20e-NP-AIMP.                    *
*         C.3.2.2. Second Series Transition Metal Elements (core [Ar,3d])      *
*           /Y.ECP.Rakowitz.11s8p7d3f.5s4p4d1f.11e-NP-AIMP.                    *
*           /Zr.ECP.Rakowitz.11s8p7d3f.5s4p4d1f.12e-NP-AIMP.                   *
*           /Nb.ECP.Rakowitz.11s8p7d3f.5s4p4d1f.13e-NP-AIMP.                   *
*           /Mo.ECP.Rakowitz.11s8p7d3f.5s4p4d1f.14e-NP-AIMP.                   *
*           /Tc.ECP.Rakowitz.11s8p7d3f.5s4p4d1f.15e-NP-AIMP.                   *
*           /Ru.ECP.Rakowitz.11s8p7d3f.5s4p4d1f.16e-NP-AIMP.                   *
*           /Rh.ECP.Rakowitz.11s8p7d3f.5s4p4d1f.17e-NP-AIMP.                   *
*           /Pd.ECP.Rakowitz.11s8p7d3f.5s4p4d1f.18e-NP-AIMP.                   *
*           /Ag.ECP.Rakowitz.11s8p7d3f.5s4p4d1f.19e-NP-AIMP.                   *
*           /Cd.ECP.Rakowitz.11s8p7d3f.5s4p4d1f.20e-NP-AIMP.                   *
*         C.3.2.3. Third Series Transition Metal Elements (core [Kr,4d,4f])    *
*           /Hf.ECP.Rakowitz.13s10p9d6f.5s4p4d2f.12e-NP-AIMP.                  *
*           /Hf.ECP.Rakowitz.13s10p9d1f.5s4p4d1f.12e-NP-AIMP.                  *
*           /Ta.ECP.Rakowitz.13s10p9d6f.5s4p4d2f.13e-NP-AIMP.                  *
*           /Ta.ECP.Rakowitz.13s10p9d1f.5s4p4d1f.13e-NP-AIMP.                  *
*           /W.ECP.Rakowitz.13s10p9d6f.5s4p4d2f.14e-NP-AIMP.                   *
*           /W.ECP.Rakowitz.13s10p9d1f.5s4p4d1f.14e-NP-AIMP.                   *
*           /Re.ECP.Rakowitz.13s10p9d6f.5s4p4d2f.15e-NP-AIMP.                  *
*           /Re.ECP.Rakowitz.13s10p9d1f.5s4p4d1f.15e-NP-AIMP.                  *
*           /Os.ECP.Rakowitz.13s10p9d6f.5s4p4d2f.16e-NP-AIMP.                  *
*           /Os.ECP.Rakowitz.13s10p9d1f.5s4p4d1f.16e-NP-AIMP.                  *
*           /Ir.ECP.Rakowitz.13s10p9d6f.5s4p4d2f.17e-NP-AIMP.                  *
*           /Ir.ECP.Rakowitz.13s10p9d1f.5s4p4d1f.17e-NP-AIMP.                  *
*           /Pt.ECP.Rakowitz.13s10p9d6f.5s4p4d2f.18e-NP-AIMP.                  *
*           /Pt.ECP.Rakowitz.13s10p9d1f.5s4p4d1f.18e-NP-AIMP.                  *
*           /Au.ECP.Rakowitz.13s10p9d6f.5s4p4d2f.19e-NP-AIMP.                  *
*           /Au.ECP.Rakowitz.13s10p9d1f.5s4p4d1f.19e-NP-AIMP.                  *
*           /Hg.ECP.Rakowitz.13s10p9d6f.5s4p4d2f.20e-NP-AIMP.                  *
*           /Hg.ECP.Rakowitz.13s10p9d1f.5s4p4d1f.20e-NP-AIMP.                  *
*       C.3.3. f-Elements                                                      *
*         C.3.3.1.a. Lanthanide Elements (core [Kr,4d])                        *
*           /Ce.ECP.Tsuchiya.14s10p9d8f.2s1p1d1f.12e-DK3-AIMP.      6s5p5d4f   *
*           /Pr.ECP.Tsuchiya.14s10p9d8f.2s1p1d1f.13e-DK3-AIMP.      6s5p5d4f   *
*           /Nd.ECP.Tsuchiya.14s10p9d8f.2s1p1d1f.14e-DK3-AIMP.      6s5p5d4f   *
*           /Pm.ECP.Tsuchiya.14s10p9d8f.2s1p1d1f.15e-DK3-AIMP.      6s5p5d4f   *
*           /Sm.ECP.Tsuchiya.14s10p9d8f.2s1p1d1f.16e-DK3-AIMP.      6s5p5d4f   *
*           /Eu.ECP.Tsuchiya.14s10p9d8f.2s1p1d1f.17e-DK3-AIMP.      6s5p5d4f   *
*           /Gd.ECP.Tsuchiya.14s10p9d8f.2s1p1d1f.18e-DK3-AIMP.      6s5p5d4f   *
*           /Tb.ECP.Tsuchiya.14s10p9d8f.2s1p1d1f.19e-DK3-AIMP.      6s5p5d4f   *
*           /Dy.ECP.Tsuchiya.14s10p9d8f.2s1p1d1f.20e-DK3-AIMP.      6s5p5d4f   *
*           /Ho.ECP.Tsuchiya.14s10p9d8f.2s1p1d1f.21e-DK3-AIMP.      6s5p5d4f   *
*           /Er.ECP.Tsuchiya.14s10p9d8f.2s1p1d1f.22e-DK3-AIMP.      6s5p5d4f   *
*           /Tm.ECP.Tsuchiya.14s10p9d8f.2s1p1d1f.23e-DK3-AIMP.      6s5p5d4f   *
*           /Yb.ECP.Tsuchiya.14s10p9d8f.2s1p1d1f.24e-DK3-AIMP.      6s5p5d4f   *
*           /Lu.ECP.Tsuchiya.14s10p9d8f.2s1p1d1f.25e-DK3-AIMP.      6s5p5d4f   *
*         C.3.3.2.a. Actinide Elements (core [Xe,4f,5d])                       *
*           /Th.ECP.Paulovic.14s10p11d9f.2s1p1d1f.12e-DK3-AIMP.     6s5p5d4f   *
*           /Pa.ECP.Paulovic.14s10p11d9f.2s1p1d1f.13e-DK3-AIMP.     6s5p5d4f   *
*           /U.ECP.Paulovic.14s10p11d9f.2s1p1d1f.14e-DK3-AIMP.      6s5p5d4f   *
*           /Np.ECP.Paulovic.14s10p11d9f.2s1p1d1f.15e-DK3-AIMP.     6s5p5d4f   *
*           /Pu.ECP.Paulovic.14s10p11d9f.2s1p1d1f.16e-DK3-AIMP.     6s5p5d4f   *
*           /Am.ECP.Paulovic.14s10p11d9f.2s1p1d1f.17e-DK3-AIMP.     6s5p5d4f   *
*           /Cm.ECP.Paulovic.14s10p11d9f.2s1p1d1f.18e-DK3-AIMP.     6s5p5d4f   *
*           /Bk.ECP.Paulovic.14s10p11d9f.2s1p1d1f.19e-DK3-AIMP.     6s5p5d4f   *
*           /Cf.ECP.Paulovic.14s10p11d9f.2s1p1d1f.20e-DK3-AIMP.     6s5p5d4f   *
*           /Es.ECP.Paulovic.14s10p11d9f.2s1p1d1f.21e-DK3-AIMP.     6s5p5d4f   *
*           /Fm.ECP.Paulovic.14s10p11d9f.2s1p1d1f.22e-DK3-AIMP.     6s5p5d4f   *
*           /Md.ECP.Paulovic.14s10p11d9f.2s1p1d1f.23e-DK3-AIMP.     6s5p5d4f   *
*           /No.ECP.Paulovic.14s10p11d9f.2s1p1d1f.24e-DK3-AIMP.     6s5p5d4f   *
*           /Lr.ECP.Paulovic.14s10p11d9f.2s1p1d1f.25e-DK3-AIMP.     6s5p5d4f   *
*         C.3.3.2.b. Actinide Elements (core [Xe,4f])                          *
*           /Th.ECP.Paulovic.14s10p12d9f.2s1p2d1f.22e-DK3-AIMP.     6s5p6d4f   *
*           /Pa.ECP.Paulovic.14s10p12d9f.2s1p2d1f.23e-DK3-AIMP.     6s5p6d4f   *
*           /U.ECP.Paulovic.14s10p12d9f.2s1p2d1f.24e-DK3-AIMP.      6s5p6d4f   *
*           /Np.ECP.Paulovic.14s10p12d9f.2s1p2d1f.25e-DK3-AIMP.     6s5p6d4f   *
*           /Pu.ECP.Paulovic.14s10p12d9f.2s1p2d1f.26e-DK3-AIMP.     6s5p6d4f   *
*           /Am.ECP.Paulovic.14s10p12d9f.2s1p2d1f.27e-DK3-AIMP.     6s5p6d4f   *
*           /Cm.ECP.Paulovic.14s10p12d9f.2s1p2d1f.28e-DK3-AIMP.     6s5p6d4f   *
*           /Bk.ECP.Paulovic.14s10p12d9f.2s1p2d1f.29e-DK3-AIMP.     6s5p6d4f   *
*           /Cf.ECP.Paulovic.14s10p12d9f.2s1p2d1f.30e-DK3-AIMP.     6s5p6d4f   *
*           /Es.ECP.Paulovic.14s10p12d9f.2s1p2d1f.31e-DK3-AIMP.     6s5p6d4f   *
*           /Fm.ECP.Paulovic.14s10p12d9f.2s1p2d1f.32e-DK3-AIMP.     6s5p6d4f   *
*           /Md.ECP.Paulovic.14s10p12d9f.2s1p2d1f.33e-DK3-AIMP.     6s5p6d4f   *
*           /No.ECP.Paulovic.14s10p12d9f.2s1p2d1f.34e-DK3-AIMP.     6s5p6d4f   *
*           /Lr.ECP.Paulovic.14s10p12d9f.2s1p2d1f.35e-DK3-AIMP.     6s5p6d4f   *
********************************************************************************
* END OF CORE AIMP CONTENTS                                                    *
********************************************************************************
*                                                                              *
*                                                                              *
*                                                                              *
*                                                                              *
*                                                                              *
*                                                                              *
*                                                                              *
*                                                                              *
*                                                                              *
*                                                                              *
********************************************************************************
********************************************************************************
* C.1. Cowan-Griffin-relativistic core AIMPs: CG-AIMP                          *
********************************************************************************
********************************************************************************
*                                                               recommended    *
*                                                               contraction    *
*       C.1.1. Main Group Elements                                             *
*         C.1.1.1. Alkaline Elements                                           *
*           /Li.ECP.Barandiaran.5s1p.1s1p.1e-CG-AIMP.               2s1p       *
*           /Na.ECP.Barandiaran.7s6p.1s2p.7e-CG-AIMP.               2s3p       *
*           /K.ECP.Barandiaran.9s7p.1s2p.7e-CG-AIMP.                2s3p       *
*           /Rb.ECP.Barandiaran.11s9p6d.1s2p1d.7e-CG-AIMP.          2s3p1d     *
*           /Cs.ECP.Barandiaran.13s11p8d.1s2p1d.7e-CG-AIMP.         3s3p1d     *
*         C.1.1.2. Alkaline Earth Elements                                     *
*           /Be.ECP.Barandiaran.5s1p.1s1p.2e-CG-AIMP.               2s1p       *
*           /Mg.ECP.Barandiaran.7s6p1d.1s2p1d.8e-CG-AIMP.           2s3p1d     *
*           /Ca.ECP.Barandiaran.9s7p5d.1s2p3d.8e-CG-AIMP.           2s3p3d     *
*           /Sr.ECP.Barandiaran.11s9p6d.1s2p1d.8e-CG-AIMP.          3s3p3d     *
*           /Ba.ECP.Barandiaran.13s11p8d.1s2p1d.8e-CG-AIMP.         3s3p3d     *
*         C.1.1.3. Group IIIA Elements                                         *
*           /B.ECP.Barandiaran.5s5p1d.1s1p1d.3e-CG-AIMP.            2s3p1d     *
*           /Al.ECP.Barandiaran.7s6p1d.1s1p1d.3e-CG-AIMP.           2s3p1d     *
*           /Ga.ECP.Barandiaran.9s8p4d.1s1p2d.3e-CG-AIMP.           3s3p2d     *
*           /In.ECP.Barandiaran.11s10p7d.1s1p2d.13e-CG-AIMP.        3s3p3d     *
*           /Tl.ECP.Barandiaran.13s12p8d5f.1s1p2d1f.13e-CG-AIMP.    3s4p3d2f   *
*         C.1.1.4. Group IVA Elements                                          *
*           /C.ECP.Barandiaran.5s5p1d.1s1p1d.4e-CG-AIMP.            2s3p1d     *
*           /Si.ECP.Barandiaran.7s6p1d.1s1p1d.4e-CG-AIMP.           2s3p1d     *
*           /Ge.ECP.Barandiaran.9s8p4d.1s1p2d.4e-CG-AIMP.           3s3p2d     *
*           /Sn.ECP.Barandiaran.11s10p7d.1s1p2d.14e-CG-AIMP.        3s3p3d     *
*           /Pb.ECP.Barandiaran.13s12p8d5f.1s1p2d1f.14e-CG-AIMP.    3s4p3d2f   *
*         C.1.1.5. Group VA Elements                                           *
*           /N.ECP.Barandiaran.5s5p1d.1s1p1d.5e-CG-AIMP.            2s3p1d     *
*           /P.ECP.Barandiaran.7s6p1d.1s1p1d.5e-CG-AIMP.            2s3p1d     *
*           /As.ECP.Barandiaran.9s8p4d.1s1p2d.5e-CG-AIMP.           3s3p2d     *
*           /Sb.ECP.Barandiaran.11s10p7d.1s1p2d.15e-CG-AIMP.        3s3p3d     *
*           /Bi.ECP.Barandiaran.13s12p8d5f.1s1p2d1f.15e-CG-AIMP.    3s4p3d2f   *
*         C.1.1.6. Group VIA Elements (Calcogens)                              *
*           /O.ECP.Barandiaran.5s6p1d.1s2p1d.6e-CG-AIMP.            2s4p1d     *
*           /S.ECP.Barandiaran.7s6p1d.1s1p1d.6e-CG-AIMP.            2s3p1d     *
*           /Se.ECP.Barandiaran.9s8p4d.1s1p2d.6e-CG-AIMP.           3s3p2d     *
*           /Te.ECP.Barandiaran.11s10p7d.1s1p2d.16e-CG-AIMP.        3s3p3d     *
*           /Po.ECP.Barandiaran.13s12p8d5f.1s1p2d1f.16e-CG-AIMP.    3s4p3d2f   *
*         C.1.1.7. Group VIIA Elements (Halogens)                              *
*           /F.ECP.Barandiaran.5s6p1d.1s2p1d.7e-CG-AIMP.            2s4p1d     *
*           /Cl.ECP.Barandiaran.7s7p1d.1s2p1d.7e-CG-AIMP.           2s4p1d     *
*           /Br.ECP.Barandiaran.9s8p4d.1s1p2d.7e-CG-AIMP.           3s4p2d     *
*           /I.ECP.Barandiaran.11s10p7d.1s1p2d.17e-CG-AIMP.         3s4p3d     *
*           /At.ECP.Barandiaran.13s12p8d5f.1s1p2d1f.17e-CG-AIMP.    3s4p3d2f   *
*         C.1.1.8. Group 0 Elements (Noble Gases)                              *
*           /Ne.ECP.Barandiaran.5s5p1d.1s1p1d.8e-CG-AIMP.           2s3p1d     *
*           /Ar.ECP.Barandiaran.7s6p1d.1s1p1d.8e-CG-AIMP.           2s3p1d     *
*           /Kr.ECP.Barandiaran.9s8p4d.1s1p2d.8e-CG-AIMP.           3s3p2d     *
*           /Xe.ECP.Barandiaran.11s10p7d.1s1p2d.18e-CG-AIMP.        3s3p3d     *
*           /Rn.ECP.Barandiaran.13s12p8d5f.1s1p2d1f.18e-CG-AIMP.    3s4p3d2f   *
*       C.1.2. Transition Metal Elements                                       *
*         C.1.2.1. First Series Transition Metal Elements (core [Mg])          *
*           /Sc.ECP.Barandiaran.9s6p6d.1s2p2d.9e-CG-AIMP.           3s3p4d     *
*           /Ti.ECP.Barandiaran.9s6p6d.1s2p2d.10e-CG-AIMP.          3s3p4d     *
*           /V.ECP.Barandiaran.9s6p6d.1s2p2d.11e-CG-AIMP.           3s3p4d     *
*           /Cr.ECP.Barandiaran.9s6p6d.1s2p2d.12e-CG-AIMP.          3s3p4d     *
*           /Mn.ECP.Barandiaran.9s6p6d.1s2p2d.13e-CG-AIMP.          3s3p4d     *
*           /Fe.ECP.Barandiaran.9s6p6d.1s2p2d.14e-CG-AIMP.          3s3p4d     *
*           /Co.ECP.Barandiaran.9s6p6d.1s2p2d.15e-CG-AIMP.          3s3p4d     *
*           /Ni.ECP.Barandiaran.9s6p6d.1s2p2d.16e-CG-AIMP.          3s3p4d     *
*           /Cu.ECP.Barandiaran.9s6p6d.1s2p2d.17e-CG-AIMP.          3s3p4d     *
*           /Zn.ECP.Barandiaran.9s6p5d.1s2p1d.18e-CG-AIMP.          3s3p3d     *
*           /Sc.ECP.Barandiaran.9s6p6d3f.1s2p2d1f.9e-CG-AIMP.       3s3p4d1f   *
*           /Ti.ECP.Barandiaran.9s6p6d3f.1s2p2d1f.10e-CG-AIMP.      3s3p4d1f   *
*           /V.ECP.Barandiaran.9s6p6d3f.1s2p2d1f.11e-CG-AIMP.       3s3p4d1f   *
*           /Cr.ECP.Barandiaran.9s6p6d3f.1s2p2d1f.12e-CG-AIMP.      3s3p4d1f   *
*           /Mn.ECP.Barandiaran.9s6p6d3f.1s2p2d1f.13e-CG-AIMP.      3s3p4d1f   *
*           /Fe.ECP.Barandiaran.9s6p6d3f.1s2p2d1f.14e-CG-AIMP.      3s3p4d1f   *
*           /Co.ECP.Barandiaran.9s6p6d3f.1s2p2d1f.15e-CG-AIMP.      3s3p4d1f   *
*           /Ni.ECP.Barandiaran.9s6p6d3f.1s2p2d1f.16e-CG-AIMP.      3s3p4d1f   *
*           /Cu.ECP.Barandiaran.9s6p6d3f.1s2p2d1f.17e-CG-AIMP.      3s3p4d1f   *
*           /Zn.ECP.Barandiaran.9s6p5d3f.1s2p1d1f.18e-CG-AIMP.      3s3p3d1f   *
*         C.1.2.2. Second Series Transition Metal Elements (core [Zn])         *
*           /Y.ECP.Barandiaran.11s8p7d.1s2p2d.9e-CG-AIMP.           3s3p4d     *
*           /Zr.ECP.Barandiaran.11s8p7d.1s2p2d.10e-CG-AIMP.         3s3p4d     *
*           /Nb.ECP.Barandiaran.11s8p7d.1s2p2d.11e-CG-AIMP.         3s3p4d     *
*           /Mo.ECP.Barandiaran.11s8p7d.1s2p2d.12e-CG-AIMP.         3s3p4d     *
*           /Tc.ECP.Barandiaran.11s8p7d.1s2p2d.13e-CG-AIMP.         3s3p4d     *
*           /Ru.ECP.Barandiaran.11s8p7d.1s2p2d.14e-CG-AIMP.         3s3p4d     *
*           /Rh.ECP.Barandiaran.11s8p7d.1s2p2d.15e-CG-AIMP.         3s3p4d     *
*           /Pd.ECP.Barandiaran.11s8p7d.1s2p2d.16e-CG-AIMP.         3s3p4d     *
*           /Ag.ECP.Barandiaran.11s8p7d.1s2p2d.17e-CG-AIMP.         3s3p4d     *
*           /Cd.ECP.Barandiaran.11s8p6d.1s2p1d.18e-CG-AIMP.         3s3p3d     *
*           /Y.ECP.Barandiaran.11s8p7d3f.1s2p2d1f.9e-CG-AIMP.       3s3p4d1f   *
*           /Zr.ECP.Barandiaran.11s8p7d3f.1s2p2d1f.10e-CG-AIMP.     3s3p4d1f   *
*           /Nb.ECP.Barandiaran.11s8p7d3f.1s2p2d1f.11e-CG-AIMP.     3s3p4d1f   *
*           /Mo.ECP.Barandiaran.11s8p7d3f.1s2p2d1f.12e-CG-AIMP.     3s3p4d1f   *
*           /Tc.ECP.Barandiaran.11s8p7d3f.1s2p2d1f.13e-CG-AIMP.     3s3p4d1f   *
*           /Ru.ECP.Barandiaran.11s8p7d3f.1s2p2d1f.14e-CG-AIMP.     3s3p4d1f   *
*           /Rh.ECP.Barandiaran.11s8p7d3f.1s2p2d1f.15e-CG-AIMP.     3s3p4d1f   *
*           /Pd.ECP.Barandiaran.11s8p7d3f.1s2p2d1f.16e-CG-AIMP.     3s3p4d1f   *
*           /Ag.ECP.Barandiaran.11s8p7d3f.1s2p2d1f.17e-CG-AIMP.     3s3p4d1f   *
*         C.1.2.3. Lanthanum and Third Series Transition Metal Elements        *
*           /La.ECP.Casarrubios.13s10p8d.1s2p2d.9e-CG-AIMP.         3s3p3d     *
*           /Hf.ECP.Casarrubios.13s10p9d5f.1s2p2d1f.10e-CG-AIMP.    3s3p4d2f   *
*           /Ta.ECP.Casarrubios.13s10p9d5f.1s2p2d1f.11e-CG-AIMP.    3s3p4d2f   *
*           /W.ECP.Casarrubios.13s10p9d5f.1s2p2d1f.12e-CG-AIMP.     3s3p4d2f   *
*           /Re.ECP.Casarrubios.13s10p9d5f.1s2p2d1f.13e-CG-AIMP.    3s3p4d2f   *
*           /Os.ECP.Casarrubios.13s10p9d5f.1s2p2d1f.14e-CG-AIMP.    3s3p4d2f   *
*           /Ir.ECP.Casarrubios.13s10p9d5f.1s2p2d1f.15e-CG-AIMP.    3s3p4d2f   *
*           /Pt.ECP.Casarrubios.13s10p9d5f.1s2p2d1f.16e-CG-AIMP.    3s3p4d2f   *
*           /Pt.ECP.Casarrubios.13s10p9d5f.1s2p2d1f.16e-CG-AIMP-ave. 3s3p4d2f  *
*           /Au.ECP.Casarrubios.13s10p9d5f.1s2p2d1f.17e-CG-AIMP.    3s3p4d2f   *
*           /Hg.ECP.Casarrubios.13s10p9d5f.1s2p2d1f.18e-CG-AIMP.    3s3p4d2f   *
*       C.1.3. f-Elements                                                      *
*         C.1.3.1.a. Lanthanide Elements (core [Kr,4d])                        *
*           /Ce.ECP.Diaz-Megias.14s10p9d8f3g.2s1p1d1f1g.12e-CG-AIMP. 6s5p5d4f1g*
*           /Pr.ECP.Seijo.14s10p9d8f3g.2s1p1d1f1g.13e-CG-AIMP.      6s5p5d4f1g *
*           /Nd.ECP.Seijo.14s10p9d8f3g.2s1p1d1f1g.14e-CG-AIMP.      6s5p5d4f1g *
*           /Pm.ECP.Seijo.14s10p9d8f3g.2s1p1d1f1g.15e-CG-AIMP.      6s5p5d4f1g *
*           /Sm.ECP.Seijo.14s10p9d8f3g.2s1p1d1f1g.16e-CG-AIMP.      6s5p5d4f1g *
*           /Eu.ECP.Seijo.14s10p9d8f3g.2s1p1d1f1g.17e-CG-AIMP.      6s5p5d4f1g *
*           /Gd.ECP.Seijo.14s10p9d8f3g.2s1p1d1f1g.18e-CG-AIMP.      6s5p5d4f1g *
*           /Tb.ECP.Seijo.14s10p9d8f3g.2s1p1d1f1g.19e-CG-AIMP.      6s5p5d4f1g *
*           /Dy.ECP.Seijo.14s10p9d8f3g.2s1p1d1f1g.20e-CG-AIMP.      6s5p5d4f1g *
*           /Ho.ECP.Seijo.14s10p9d8f3g.2s1p1d1f1g.21e-CG-AIMP.      6s5p5d4f1g *
*           /Er.ECP.Seijo.14s10p9d8f3g.2s1p1d1f1g.22e-CG-AIMP.      6s5p5d4f1g *
*           /Tm.ECP.Seijo.14s10p9d8f3g.2s1p1d1f1g.23e-CG-AIMP.      6s5p5d4f1g *
*           /Yb.ECP.Seijo.14s10p9d8f3g.2s1p1d1f1g.24e-CG-AIMP.      6s5p5d4f1g *
*           /Lu.ECP.Seijo.14s10p9d8f3g.2s1p1d1f1g.25e-CG-AIMP.      6s5p5d4f1g *
*         C.1.3.1.b. Lanthanide Elements (core [Kr])                           *
*           /Ce.ECP.Seijo.14s10p10d8f3g.2s1p2d1f1g.22e-CG-AIMP.     6s5p6d4f1g *
*           /Pr.ECP.Seijo.14s10p10d8f3g.2s1p2d1f1g.23e-CG-AIMP.     6s5p6d4f1g *
*           /Nd.ECP.Seijo.14s10p10d8f3g.2s1p2d1f1g.24e-CG-AIMP.     6s5p6d4f1g *
*           /Pm.ECP.Seijo.14s10p10d8f3g.2s1p2d1f1g.25e-CG-AIMP.     6s5p6d4f1g *
*           /Sm.ECP.Seijo.14s10p10d8f3g.2s1p2d1f1g.26e-CG-AIMP.     6s5p6d4f1g *
*           /Eu.ECP.Seijo.14s10p10d8f3g.2s1p2d1f1g.27e-CG-AIMP.     6s5p6d4f1g *
*           /Gd.ECP.Seijo.14s10p10d8f3g.2s1p2d1f1g.28e-CG-AIMP.     6s5p6d4f1g *
*           /Tb.ECP.Seijo.14s10p10d8f3g.2s1p2d1f1g.29e-CG-AIMP.     6s5p6d4f1g *
*           /Dy.ECP.Seijo.14s10p10d8f3g.2s1p2d1f1g.30e-CG-AIMP.     6s5p6d4f1g *
*           /Ho.ECP.Seijo.14s10p10d8f3g.2s1p2d1f1g.31e-CG-AIMP.     6s5p6d4f1g *
*           /Er.ECP.Seijo.14s10p10d8f3g.2s1p2d1f1g.32e-CG-AIMP.     6s5p6d4f1g *
*           /Tm.ECP.Seijo.14s10p10d8f3g.2s1p2d1f1g.33e-CG-AIMP.     6s5p6d4f1g *
*           /Yb.ECP.Seijo.14s10p10d8f3g.2s1p2d1f1g.34e-CG-AIMP.     6s5p6d4f1g *
*           /Lu.ECP.Seijo.14s10p10d8f3g.2s1p2d1f1g.35e-CG-AIMP.     6s5p6d4f1g *
*         C.1.3.1.c. Lanthanide Elements (core [M])                            *
*           /Ce.ECP.Seijo.14s10p10d8f3g.3s2p2d1f1g.30e-CG-AIMP.     7s6p6d4f1g *
*           /Pr.ECP.Seijo.14s10p10d8f3g.3s2p2d1f1g.31e-CG-AIMP.     7s6p6d4f1g *
*           /Nd.ECP.Seijo.14s10p10d8f3g.3s2p2d1f1g.32e-CG-AIMP.     7s6p6d4f1g *
*           /Pm.ECP.Seijo.14s10p10d8f3g.3s2p2d1f1g.33e-CG-AIMP.     7s6p6d4f1g *
*           /Sm.ECP.Seijo.14s10p10d8f3g.3s2p2d1f1g.34e-CG-AIMP.     7s6p6d4f1g *
*           /Eu.ECP.Seijo.14s10p10d8f3g.3s2p2d1f1g.35e-CG-AIMP.     7s6p6d4f1g *
*           /Gd.ECP.Seijo.14s10p10d8f3g.3s2p2d1f1g.36e-CG-AIMP.     7s6p6d4f1g *
*           /Tb.ECP.Seijo.14s10p10d8f3g.3s2p2d1f1g.37e-CG-AIMP.     7s6p6d4f1g *
*           /Dy.ECP.Seijo.14s10p10d8f3g.3s2p2d1f1g.38e-CG-AIMP.     7s6p6d4f1g *
*           /Ho.ECP.Seijo.14s10p10d8f3g.3s2p2d1f1g.39e-CG-AIMP.     7s6p6d4f1g *
*           /Er.ECP.Seijo.14s10p10d8f3g.3s2p2d1f1g.40e-CG-AIMP.     7s6p6d4f1g *
*           /Tm.ECP.Seijo.14s10p10d8f3g.3s2p2d1f1g.41e-CG-AIMP.     7s6p6d4f1g *
*           /Yb.ECP.Seijo.14s10p10d8f3g.3s2p2d1f1g.42e-CG-AIMP.     7s6p6d4f1g *
*           /Lu.ECP.Seijo.14s10p10d8f3g.3s2p2d1f1g.43e-CG-AIMP.     7s6p6d4f1g *
*         C.1.3.2.a. Actinide Elements (core [Xe,4f,5d])                       *
*           /Th.ECP.Seijo.14s10p11d9f3g.2s1p1d1f1g.12e-CG-AIMP.     6s5p5d4f1g *
*           /Pa.ECP.Seijo.14s10p11d9f3g.2s1p1d1f1g.13e-CG-AIMP.     6s5p5d4f1g *
*           /U.ECP.Seijo.14s10p11d9f3g.2s1p1d1f1g.14e-CG-AIMP.      6s5p5d4f1g *
*           /Np.ECP.Seijo.14s10p11d9f3g.2s1p1d1f1g.15e-CG-AIMP.     6s5p5d4f1g *
*           /Pu.ECP.Seijo.14s10p11d9f3g.2s1p1d1f1g.16e-CG-AIMP.     6s5p5d4f1g *
*           /Am.ECP.Seijo.14s10p11d9f3g.2s1p1d1f1g.17e-CG-AIMP.     6s5p5d4f1g *
*           /Cm.ECP.Seijo.14s10p11d9f3g.2s1p1d1f1g.18e-CG-AIMP.     6s5p5d4f1g *
*           /Bk.ECP.Seijo.14s10p11d9f3g.2s1p1d1f1g.19e-CG-AIMP.     6s5p5d4f1g *
*           /Cf.ECP.Seijo.14s10p11d9f3g.2s1p1d1f1g.20e-CG-AIMP.     6s5p5d4f1g *
*           /Es.ECP.Seijo.14s10p11d9f3g.2s1p1d1f1g.21e-CG-AIMP.     6s5p5d4f1g *
*           /Fm.ECP.Seijo.14s10p11d9f3g.2s1p1d1f1g.22e-CG-AIMP.     6s5p5d4f1g *
*           /Md.ECP.Seijo.14s10p11d9f3g.2s1p1d1f1g.23e-CG-AIMP.     6s5p5d4f1g *
*           /No.ECP.Seijo.14s10p11d9f3g.2s1p1d1f1g.24e-CG-AIMP.     6s5p5d4f1g *
*           /Lr.ECP.Seijo.14s10p11d9f3g.2s1p1d1f1g.25e-CG-AIMP.     6s5p5d4f1g *
*         C.1.3.2.b. Actinide Elements (core [Xe,4f])                          *
*           /Th.ECP.Seijo.14s10p12d9f3g.2s1p2d1f1g.22e-CG-AIMP.     6s5p6d4f1g *
*           /Pa.ECP.Seijo.14s10p12d9f3g.2s1p2d1f1g.23e-CG-AIMP.     6s5p6d4f1g *
*           /U.ECP.Seijo.14s10p12d9f3g.2s1p2d1f1g.24e-CG-AIMP.      6s5p6d4f1g *
*           /Np.ECP.Seijo.14s10p12d9f3g.2s1p2d1f1g.25e-CG-AIMP.     6s5p6d4f1g *
*           /Pu.ECP.Seijo.14s10p12d9f3g.2s1p2d1f1g.26e-CG-AIMP.     6s5p6d4f1g *
*           /Am.ECP.Seijo.14s10p12d9f3g.2s1p2d1f1g.27e-CG-AIMP.     6s5p6d4f1g *
*           /Cm.ECP.Seijo.14s10p12d9f3g.2s1p2d1f1g.28e-CG-AIMP.     6s5p6d4f1g *
*           /Bk.ECP.Seijo.14s10p12d9f3g.2s1p2d1f1g.29e-CG-AIMP.     6s5p6d4f1g *
*           /Cf.ECP.Seijo.14s10p12d9f3g.2s1p2d1f1g.30e-CG-AIMP.     6s5p6d4f1g *
*           /Es.ECP.Seijo.14s10p12d9f3g.2s1p2d1f1g.31e-CG-AIMP.     6s5p6d4f1g *
*           /Fm.ECP.Seijo.14s10p12d9f3g.2s1p2d1f1g.32e-CG-AIMP.     6s5p6d4f1g *
*           /Md.ECP.Seijo.14s10p12d9f3g.2s1p2d1f1g.33e-CG-AIMP.     6s5p6d4f1g *
*           /No.ECP.Seijo.14s10p12d9f3g.2s1p2d1f1g.34e-CG-AIMP.     6s5p6d4f1g *
*           /Lr.ECP.Seijo.14s10p12d9f3g.2s1p2d1f1g.35e-CG-AIMP.     6s5p6d4f1g *
********************************************************************************
*
* - Except when indicated otherwise, polarization functions are taken from
*   S.Huzinaga (Editor), J.Andzelm, M.Klobukowski, E.Radzio, Y.Sakai,
*   and H.Tatewaki, "Gaussian Basis Sets for Molecular Calculations"
*   (Elsevier, Amsterdam, 1984).
*
********************************************************************************
*    C.1.1. Main Group Elements
********************************************************************************
*
********************************************************************************
*         C.1.1.1. Alkaline Elements
********************************************************************************
*
/Li.ECP.Barandiaran.5s1p.1s1p.1e-CG-AIMP.
Z.Barandiaran and L.Seijo, Can.J.Chem. 70(1992)409.
relativistic     core[He] val[2s]     (51/1*)=2s1p recommended
*LIQR-S(5/1)                   (51/1) recomended
  1.000000         1

    5    1
   30.37085710
   4.485234250
   .8652543340
   .6307418490E-01
   .2434408340E-01
  -.013403400500
  -.075575864900
  -.190394563000
   .684382478000
   .390204196000
    1    1
   .7600000000E-01
  1.000000000000
*
* Core AIMP: LIQR-1S
*
* Local Potential Parameters : (ECP convention)
*                              A(AIMP)=-Zeff*A(ECP)
M1
    8
   148400.0000
   10640.00000
   1443.000000
   262.2000000
   58.70000000
   15.82000000
   4.974000000
   1.732000000

   .015592682000
   .032292171000
   .073433474000
   .153493540000
   .306600780000
   .555795220000
   .645499070000
   .217293050000
M2
    0
COREREP
   1.0
PROJOP
    0
    6    1
  4.95599380
   221.0000000
   38.02000000
   10.09000000
   3.234000000
   1.146000000
   .4289000000
   .007829273100
   .045303579000
   .158005420000
   .353248220000
   .436176680000
   .161478360000
*
Spectral Representation Operator
Valence primitive basis
Exchange
1stOrder Relativistic Correction
LIQR-1S
End of Spectral Representation Operator

/Na.ECP.Barandiaran.7s6p.1s2p.7e-CG-AIMP.
Z.Barandiaran and L.Seijo, Can.J.Chem. 70(1992)409.
relativistic     core[Be] val[2p,3s]     (71/511*)=2s3p recommended
*NAQR-PS(7/51)
  7.000000         1

    7    1
   640.9552140
   95.79399140
   21.05670040
   1.718017750
   .5093566760
   .5872457940E-01
   .2335697130E-01
   .002058068120
   .013597902300
   .039341807500
  -.125480352000
  -.194733073000
   .637417525000
   .461033876000
    6    2
   76.24460880
   17.42422380
   5.216915340
   1.667316650
   .5135851080
   .6100000000E-01
   .015296254800   .000000000000
   .099086042700   .000000000000
   .311441145000   .000000000000
   .493636650000   .000000000000
   .325102587000   .000000000000
   .000000000000  1.000000000000
*
* Core AIMP: NAQR-2S
*
* Local Potential Parameters : (ECP convention)
*                              A(AIMP)=-Zeff*A(ECP)
M1
   10
   240800.0000
   27250.00000
   5002.000000
   1185.100000
   344.2000000
   115.0600000
   41.13000000
   9.040000000
   3.445000000
   1.424000000

   .007309110143
   .011252385714
   .022775591429
   .041713367143
   .073802637143
   .105501388571
   .074693505714
   .075286251429
   .124171395714
   .034922938571
M2
    0
COREREP
   1.0
PROJOP
    0
    8    2
  81.0947530      5.61062200
   1461.000000
   268.1000000
   75.49000000
   26.06000000
   9.980000000
   2.750000000
   1.077000000
   .4230000000
   .020217763000   .004836321000
   .100762990000   .026543056000
   .291326630000   .079898111000
   .453250580000   .176061270000
   .268682470000   .136272240000
   .022241853000  -.342088420000
  -.004158291100  -.591866250000
   .001333858500  -.215717650000
*
Spectral Representation Operator
Valence primitive basis
Exchange
1stOrder Relativistic Correction
NAQR-2S
End of Spectral Representation Operator

/K.ECP.Barandiaran.9s7p.1s2p.7e-CG-AIMP.
Z.Barandiaran and L.Seijo, Can.J.Chem. 70(1992)409.
relativistic     core[Mg] val[3p,4s]     (91/611*)=2s3p recommended
*KQR-PS(9/61)
  7.000000         1

    9    1
   2013.161710
   299.7378560
   66.98019730
   6.553351740
   3.421566350
   .6874970390
   .2449214330
   .3941878210E-01
   .1698987020E-01
  -.001038228080
  -.006884314010
  -.020406943300
   .066040876000
   .061447358200
  -.201753280000
  -.263512742000
   .672090263000
   .465706258000
    7    2
   126.6177120
   28.88193880
   8.349802690
   1.030007410
   .4042760550
   .1595598330
   .3900000000E-01
  -.017061864400   .000000000000
  -.096307631100   .000000000000
  -.208618293000   .000000000000
   .465866875000   .000000000000
   .499025679000   .000000000000
   .150293586000   .000000000000
   .000000000000  1.000000000000
*
* Core AIMP: KQR-3S
*
* Local Potential Parameters : (ECP convention)
*                              A(AIMP)=-Zeff*A(ECP)
M1
   11
   268000.0000
   30890.00000
   5966.000000
   1455.600000
   425.5000000
   138.1700000
   41.30000000
   16.07200000
   6.667000000
   1.644900000
   .7321700000

   .019215061429
   .028885224286
   .056560330000
   .105893171429
   .169312028571
   .184149571429
   .281210771429
   .483074342857
   .166108885714
   .166266000000
   .053610325714
M2
    0
COREREP
   1.0
PROJOP
    1
   10    3
  268.412230      29.2133530      3.52244530
   4645.000000
   829.0000000
   229.5000000
   79.02000000
   30.84000000
   8.622000000
   3.538000000
   1.085000000
   .5182000000
   .2212000000
   .020273327000   .005710558700   .001902326200
   .101681840000   .032077171000   .010542130000
   .298470800000   .097593141000   .032983185000
   .452495270000   .217020950000   .074265408000
   .261167900000   .140834470000   .053137372000
   .022845896000  -.508446430000  -.240793860000
  -.006621942100  -.588567240000  -.451585820000
   .003139822400  -.067481045000   .270327760000
  -.001902627600   .015034550000   .707105120000
   .000616790990  -.003633247900   .251671240000
    8    1
  23.0617280
   192.4000000
   48.78000000
   16.64000000
   6.421000000
   2.663000000
   1.030000000
   .4070000000
   .1579000000
   .028338344000
   .146295140000
   .370334030000
   .455394640000
   .189539310000
   .011793632000
   .000277805700
  -.000104475870
*
Spectral Representation Operator
Valence primitive basis
Exchange
1stOrder Relativistic Correction
KQR-3S
End of Spectral Representation Operator

/Rb.ECP.Barandiaran.11s9p6d.1s2p1d.7e-CG-AIMP.
Z.Barandiaran and L.Seijo, Can.J.Chem. 70(1992)409.
relativistic     core[Zn] val[4p,5s]     (11,1/811*/6o)=2s3p1d recommended
*
* - (6o) d orthogonality function is the 3d core orbital
*
*RBQR-PS(A1/81/6)
  7.000000         2

   11    1
   10154.88180
   1385.337610
   294.0956470
   29.34236590
   15.15822680
   5.506955490
   2.820692000
   .5173471450
   .1978159400
   .3544276540E-01
   .1553598510E-01
   .000470503012
   .003250536850
   .010494762400
  -.041146426500
  -.022850526500
   .045875917500
   .133107047000
  -.245250021000
  -.279126583000
   .686498234000
   .468779484000
    9    2
   685.6322780
   157.2830260
   47.96303230
   6.802958500
   3.063761130
   .8349160300
   .3608695290
   .1438744650
   .3400000000E-01
   .005361643440   .000000000000
   .033995362600   .000000000000
   .084673550000   .000000000000
  -.205755459000   .000000000000
  -.195621803000   .000000000000
   .368835926000   .000000000000
   .564942258000   .000000000000
   .218642934000   .000000000000
   .000000000000  1.000000000000
    6    1
   159.2000000
   47.79000000
   17.62000000
   6.987000000
   2.809000000
   1.060000000
   .013946015000
   .085850180000
   .268549880000
   .438837880000
   .368847790000
   .104641590000
*
* Core AIMP: RBQR-3D
*
* Local Potential Parameters : (ECP convention)
*                              A(AIMP)=-Zeff*A(ECP)
M1
   12
   325900.0000
   43730.00000
   9431.000000
   2524.000000
   777.1000000
   234.9000000
   86.96000000
   32.90000000
   11.13000000
   5.091000000
   1.437000000
   .6211000000

   .045848824286
   .061797052857
   .116884460000
   .202075500000
   .272620000000
   .382055657143
   .703247528571
   .386323542857
  1.119709128571
   .712753585714
   .212841171429
   .069557831429
M2
    0
COREREP
   1.0
PROJOP
    2
   12    4
  1124.95200      155.108170      25.1279230      3.13270010
   21340.00000
   3532.000000
   936.3000000
   315.1000000
   123.6400000
   39.43000000
   17.07000000
   5.507000000
   2.539000000
   .8410000000
   .4280000000
   .1860000000
   .021065861000   .006845774500   .002853739900   .000974208470
   .102274340000   .036370709000   .014589882000   .004898538400
   .301930290000   .113573610000   .048271231000   .016525193000
   .456634930000   .244861250000   .103049740000   .034826576000
   .256225520000   .144301770000   .072841601000   .025918287000
   .021424456000  -.531494920000  -.364884720000  -.135226390000
  -.008033194100  -.578807400000  -.516849780000  -.199844880000
   .003021691200  -.070039419000   .569240170000   .284561880000
  -.000442908480   .017014714000   .681506410000   .576381960000
   .000914426700  -.007627384700   .064252181000  -.233086480000
  -.000954856800   .004546873600  -.013372752000  -.763322950000
   .000039891688  -.001212189100   .002706345000  -.276314890000
   10    2
  137.156980      19.1738170
   830.8000000
   209.4000000
   72.01000000
   28.56000000
   11.70000000
   5.139000000
   2.286000000
   .8212000000
   .3359000000
   .1320000000
   .030823158000   .012991573000
   .163615720000   .071633154000
   .411310090000   .194352810000
   .445687080000   .206671540000
   .133848830000  -.197454270000
  -.000401286860  -.574797310000
   .002634989000  -.350951260000
  -.000948753600  -.033342532000
   .000706663260   .003722425300
  -.000099406195  -.000937229130
    6    1
  9.29077160
   159.2000000
   47.79000000
   17.62000000
   6.987000000
   2.809000000
   1.060000000
   .013946015000
   .085850180000
   .268549880000
   .438837880000
   .368847790000
   .104641590000
*
Spectral Representation Operator
Valence primitive basis
Exchange
1stOrder Relativistic Correction
RBQR-3D
End of Spectral Representation Operator

/Cs.ECP.Barandiaran.13s11p8d.1s2p1d.7e-CG-AIMP.
Z.Barandiaran and L.Seijo, Can.J.Chem. 70(1992)409.
relativistic     core[Cd] val[5p,6s]     (13,1,1/10,11*/8o)=3s3p1d recommended
*
* - (8o) d orthogonality function is the 4d core orbital
*
*CSQR-PS(A3/A01/8)
  7.000000         2

   13    1
   33271.63450
   3972.519240
   773.7478190
   69.94397510
   37.51714220
   13.53223390
   7.701665290
   3.563554170
   1.557904520
   .5031288140
   .1860020700
   .2674560640E-01
   .1199656410E-01
  -.000274038147
  -.001914711580
  -.006524116450
   .030320373900
   .009934508750
  -.055691120700
  -.083666511400
   .096031783500
   .204409035000
  -.208369281000
  -.399938980000
   .812495004000
   .342328395000
   11    2
   1842.957990
   414.9763140
   126.7203360
   18.14925200
   7.061743230
   4.117350350
   1.682597990
   .8163333250
   .3193665280
   .1246017450
   .2600000000E-01
  -.002816245230   .000000000000
  -.018406046300   .000000000000
  -.049138483600   .000000000000
   .163273802000   .000000000000
   .121630592000   .000000000000
  -.306620039000   .000000000000
  -.373129394000   .000000000000
   .257129375000   .000000000000
   .680283968000   .000000000000
   .304439365000   .000000000000
   .000000000000  1.000000000000
    8    1
   318.9000000
   98.00000000
   38.15000000
   16.32000000
   7.318000000
   3.270000000
   1.437000000
   .5790000000
   .011677473000
   .065751032000
   .165085610000
   .183125590000
  -.125000410000
  -.509803050000
  -.430204990000
  -.101530000000
*
* Core AIMP: CSQR-4D
*
* Local Potential Parameters : (ECP convention)
*                              A(AIMP)=-Zeff*A(ECP)
M1
   13
   325700.0000
   43280.00000
   9497.000000
   2560.000000
   715.4000000
   236.9000000
   82.06000000
   29.93000000
   9.054000000
   4.194000000
   1.723000000
   .6438000000
   .2734000000

   .082355364286
   .112017545714
   .207448414286
   .321045042857
   .443537314286
   .853245071429
   .559739214286
  1.780744000000
   .277259457143
  1.585269714286
   .455462714286
   .171704742857
   .007314216571
M2
    0
COREREP
   1.0
PROJOP
    2
   15    5
  2663.20410      425.434680      91.6833570      18.6742230      2.61902420
   118600.0000
   17060.00000
   4181.000000
   1325.000000
   490.7000000
   194.5000000
   87.45000000
   40.65000000
   15.96000000
   8.184000000
   3.292000000
   1.647000000
   .3153000000
   .5969000000
   .1420000000
   .012621619000   .004576402200   .002051392200   .000952253650   .000361200150
   .056924029000   .021034047000   .009653687400   .004421885800   .001646662400
   .181773510000   .071851583000   .032600397000   .015186207000   .005768522800
   .382362470000   .174427350000   .083021405000   .038242470000   .014232295000
   .409335000000   .255652440000   .123950330000   .059167248000   .022758166000
   .128929700000  -.003818388500  -.001276553800  -.003372900800  -.002344550200
  -.010340961000  -.572211930000  -.474552940000  -.243090480000  -.091721669000
  -.002241837400  -.498848090000  -.512312510000  -.303153560000  -.123136630000
  -.000003993615  -.067140784000   .590297750000   .515950270000   .229041540000
   .005652005300   .015560511000   .708418620000   .846083320000   .381581130000
  -.001821302500  -.005621987800   .084815737000  -.623995550000  -.380026440000
  -.001171755300   .001974088600  -.012332530000  -.808692290000  -.753721230000
   .000679304950   .001175125200  -.002540714000   .014262029000   .822725370000
  -.000262818470  -.001458640000   .004765545400  -.075040308000   .242293140000
   .000115653460  -.000120022060   .000643242240  -.002667787000   .278135670000
   12    3
  381.533470      77.1651240      13.8239540
   2307.000000
   571.4000000
   195.8000000
   77.88000000
   32.26000000
   14.73000000
   6.940000000
   3.163000000
   1.463000000
   .5409000000
   .2315000000
   .9420000000E-01
   .026545610000   .012866802000   .005892672300
   .143160280000   .072016856000   .032349524000
   .384533840000   .208447810000   .097511233000
   .464836240000   .250563360000   .112228090000
   .164887380000  -.191279900000  -.126314460000
  -.004398349000  -.635516960000  -.469026030000
   .004380702300  -.295300080000  -.051905326000
  -.001962830000  -.020386048000   .673155180000
   .002045358300  -.000683111960   .451813610000
  -.000740559590   .000175120150   .040697238000
   .000027926822  -.000321349960  -.004277866300
  -.000156973110  -.000006370323   .001029175600
    8    2
  55.7337310      6.50880720
   318.9000000
   98.00000000
   38.15000000
   16.32000000
   7.318000000
   3.270000000
   1.437000000
   .5790000000
   .027006570000   .011677473000
   .146438600000   .065751032000
   .371223660000   .165085610000
   .456437020000   .183125590000
   .206799840000  -.125000410000
   .020393308000  -.509803050000
   .000290417260  -.430204990000
  -.000249643630  -.101530000000
*
Spectral Representation Operator
Valence primitive basis
Exchange
1stOrder Relativistic Correction
CSQR-4D
End of Spectral Representation Operator

*
********************************************************************************
*         C.1.1.2. Alkaline Earth Elements
********************************************************************************
*
/Be.ECP.Barandiaran.5s1p.1s1p.2e-CG-AIMP.
Z.Barandiaran and L.Seijo, Can.J.Chem. 70(1992)409.
relativistic     core[He] val[2s]     (51/1*)=2s1p recommended
*BEQR-S(5/1)
  2.000000         1

    5    1
   65.33347160
   9.754683470
   2.006058220
   .1508886280
   .5132479950E-01
  -.013105905200
  -.078786664800
  -.209306256000
   .623874541000
   .462382597000
    1    1
   .1640000000
  1.000000000000
*
* Core AIMP: BEQR-1S
*
* Local Potential Parameters : (ECP convention)
*                              A(AIMP)=-Zeff*A(ECP)
M1
    8
   164400.0000
   13160.00000
   1894.000000
   360.9000000
   86.20000000
   24.96000000
   8.410000000
   3.120000000

   .009880457000
   .019210281000
   .042901060000
   .087450755000
   .167392045000
   .285949600000
   .299390155000
   .087825645000
M2
    0
COREREP
   1.0
PROJOP
    0
    6    1
  9.46706060
   264.2000000
   48.83000000
   13.79000000
   4.736000000
   1.824000000
   .7360000000
   .012720080000
   .065289875000
   .200380570000
   .383441840000
   .384956040000
   .110604310000
*
Spectral Representation Operator
Valence primitive basis
Exchange
1stOrder Relativistic Correction
BEQR-1S
End of Spectral Representation Operator

/Mg.ECP.Barandiaran.7s6p1d.1s2p1d.8e-CG-AIMP.
Z.Barandiaran and L.Seijo, Can.J.Chem. 70(1992)409.
relativistic     core[Be] val[2p,3s]     (71/511*/1*)=2s3p1d recommended
*
* - d polarization function for Mg(++) included
*
*MGQR-PS(7/51/1)
  8.000000         2

    7    1
   749.4905430
   112.7075810
   25.03598410
   2.215207800
   .7919211260
   .1082859700
   .3934098990E-01
   .002822380390
   .018463723200
   .052807826000
  -.156159185000
  -.231442398000
   .617695612000
   .504658672000
    6    2
   97.67521490
   22.46622510
   6.800248430
   2.221767170
   .7133720410
   .1010000000
   .014716371300   .000000000000
   .096582975600   .000000000000
   .309553043000   .000000000000
   .499207374000   .000000000000
   .312472372000   .000000000000
   .000000000000  1.000000000000
    1    1
   3.444000000
  1.000000000000
*
* Core AIMP: MGQR-2S
*
* Local Potential Parameters : (ECP convention)
*                              A(AIMP)=-Zeff*A(ECP)
M1
   10
   264900.0000
   30630.00000
   5597.000000
   1303.600000
   371.7000000
   123.3700000
   44.02000000
   10.12500000
   4.116000000
   1.799000000

   .006654068375
   .010180315125
   .020904346250
   .039021251250
   .069510491250
   .094273611250
   .058209160000
   .070724320000
   .104196217500
   .026326217500
M2
    0
COREREP
   1.0
PROJOP
    0
    8    2
  98.2606260      7.56027840
   1904.000000
   345.5000000
   96.13000000
   32.80000000
   12.43200000
   3.424000000
   1.383000000
   .5616000000
   .018328753000   .004534055400
   .093330879000   .025395320000
   .279340860000   .078901697000
   .454710140000   .179535480000
   .285719650000   .149660240000
   .025819724000  -.337746280000
  -.005407629400  -.601641570000
   .001617642800  -.209552930000
*
Spectral Representation Operator
Valence primitive basis
Exchange
1stOrder Relativistic Correction
MGQR-2S
End of Spectral Representation Operator

/Ca.ECP.Barandiaran.9s7p5d.1s2p3d.8e-CG-AIMP.
Z.Barandiaran, L.Seijo, Can.J.Chem.70(1992)409. (d set: L.G.M.Pettersson, et al.
relativistic Chem.Phys.82(1983)355) core[Mg] val[3p,4s] (91/611*/311)=2s3p3d recomm.
*
* - d set from
*   L.G.M.Pettersson, P.E.M.Siegbahn, and S.Ismail, Chem.Phys. 82(1983)355.
*
*CAQR-PS(9/61/311)             (81/511/311)
  8.000000         2

    9    1
   2307.472830
   339.7782500
   75.27504150
   7.127905850
   3.327224120
   .9694450400
   .4018272450
   .6283087370E-01
   .2518110180E-01
  -.001325866600
  -.008933587540
  -.026960551500
   .102469954000
   .077037190300
  -.204180745000
  -.352158018000
   .702263064000
   .454948233000
    7    2
   145.0132010
   33.17408270
   9.668298250
   1.216236070
   .4862043050
   .1917624550
   .5900000000E-01
  -.017810797900   .000000000000
  -.101606111000   .000000000000
  -.223228048000   .000000000000
   .498411463000   .000000000000
   .493766014000   .000000000000
   .113613863000   .000000000000
   .000000000000  1.000000000000
    5    3
   7.455000000
   1.866000000
   .5450000000
   .1677000000
   .5890000000E-01
[...]
  0.024697185479 -0.471254278768
 -0.005594087132 -0.634895384001
    6    1    6
 0.6467565112
  34.97120000      7.845090000      2.303320000     0.7219800000
 0.2155300000     0.5900000000E-01
  0.013135630071
  0.085928653969
  0.247148699374
  0.449813599164
  0.491199775355
 -0.079484485613
*
Spectral Representation Operator
Core primitive basis
Exchange
End of Spectral Representation Operator


********************************************************************************
*         E.8.21. Lu2CaMg2Si3O12
********************************************************************************
*           E.8.21.a. Lu2CaMg2Si3O12
*             Structure:
*                    A.A.Setlur et al., Chem. Mater. 18(2006)3314
*                    (Ia-3d; a=11.9750A, x=-0.0351, =0.0538, z=0.1578
*             Embedding potentials:
*                    L. Seijo and Z. Barandiaran,
*                    Phys. Chem. Chem. Phys., 15 (2013) 19221.
*                    Out of SCEI DKH-HF calculations
*             /Lu.ECP.Seijo.0s.0s.0e-AIMP-Lu2CaMg2Si3O12-Lu.
*             /Ca.ECP.Seijo.0s.0s.0e-AIMP-Lu2CaMg2Si3O12-Ca.
*             /Mg.ECP.Seijo.0s.0s.0e-AIMP-Lu2CaMg2Si3O12-Mg(oct).
*             /Si.ECP.Seijo.0s.0s.0e-AIMP-Lu2CaMg2Si3O12-Si(tet).
*             /Si.ECP.Seijo.16s11p.1s1p.0e-AIMP-Lu2CaMg2Si3O12-Si(tet).
*             /O.ECP.Seijo.0s.0s.0e-AIMP-Lu2CaMg2Si3O12-O.
********************************************************************************
/Lu.ECP.Seijo.0s.0s.0e-AIMP-Lu2CaMg2Si3O12-Lu.
L. Seijo, Z. Barandiaran, Phys.Chem.Chem.Phys., 15(2013)19221.
Embedding AIMP of Lu(3+) in Lu2CaMg2Si3O12
   3.000    0
    0    0
*
* External AIMP:
* Local Pot. Param. : (ECP convention)
*                      A(AIMP)=-Zeff*A(ECP)
*
M1
   13
  441130.0000      78986.00000      21089.00000      6510.300000
  2144.800000      727.2900000      305.4500000      95.42200000
  51.83800000      11.05620000      5.304800000      1.810700000
 0.8236900000
 0.2406037430     0.2557946439     0.4332835888     0.6520330814
 0.8506819848      1.482588859      1.855862759      2.131588641
  3.592069712      4.950094205      2.980578045      2.338464283
 0.9030231209
M2
    0
COREREP
   1.000
PROJOP
    3
   27    5    2    2    2    2    2
  4669.214682      804.8302321      186.3569500      38.92484656
  4.977518612
 0.6701311900E+11  7216717800.      1171529200.      235233120.0
  55877724.00      14949778.00      4363017.000      1375340.500
  456540.5200      160435.3700      59637.10400      23233.14400
  9474.040900      4032.731300      1779.753900      807.8776800
  374.9260700      172.1622700      81.75905400      34.04620200
  17.67359800      7.084092600      3.479507300     0.9931652500
 0.4458321400     0.7721303500E-01 0.3053352200E-01
 -0.000000244159 -0.000000081509 -0.000000051623  0.000000015328 -0.000000006643
  0.000001120858  0.000000374559  0.000000236647 -0.000000070584  0.000000030560
 -0.000004011432 -0.000001348944 -0.000000839505  0.000000257494 -0.000000110723
  0.000016057859  0.000005559798  0.000003220044 -0.000001123084  0.000000468574
 -0.000595541280 -0.000221485214 -0.000106087664  0.000050450057 -0.000019778835
 -0.000742824110 -0.000280859363 -0.000128808244  0.000065474618 -0.000025371335
 -0.001956849062 -0.000727632361 -0.000351835787  0.000165074089 -0.000064910893
 -0.003949491924 -0.001497905730 -0.000690998523  0.000348563302 -0.000135141193
 -0.008181500879 -0.003073807874 -0.001481830004  0.000700439749 -0.000275554579
 -0.016327091800 -0.006257096969 -0.002933280116  0.001449215584 -0.000561566019
 -0.032284660281 -0.012495628141 -0.005959476475  0.002885521601 -0.001126712883
 -0.063239750961 -0.025221363519 -0.011988781226  0.005864796872 -0.002284886283
 -0.120490529981 -0.050090621132 -0.024128863772  0.011760088953 -0.004583812827
 -0.213403003960 -0.096618158967 -0.046861710506  0.023033796455 -0.008993411799
 -0.315171280866 -0.163496009471 -0.082167505776  0.040358992985 -0.015750391321
 -0.302931793739 -0.195815529020 -0.100636943132  0.050566208411 -0.019844589335
 -0.121186106741  0.010629782631  0.012944295598 -0.008839851112  0.003690999938
 -0.007602093799  0.503632354711  0.431203291161 -0.238273417580  0.095474972840
 -0.000655846211  0.534061668783  0.582641881182 -0.363866720764  0.150260178278
  0.000523977180  0.095857165585 -0.464940694017  0.457441114708 -0.208804227445
 -0.000298542739 -0.014771628432 -0.818860425649  0.986636858797 -0.475234024098
  0.000144190179  0.005047931946 -0.115530875697 -0.614307825665  0.432037865745
 -0.000076425681 -0.002356372609  0.014455582308 -0.857244718214  0.774863926642
  0.000025280027  0.000735595602 -0.003857486733 -0.057488789346 -0.702138912326
 -0.000011435565 -0.000345101359  0.001798137927  0.013030635544 -0.654737938184
  0.000002918352  0.000086932238 -0.000425524830 -0.002446781531 -0.001677716010
 -0.000001437668 -0.000040155604  0.000195421661  0.001137642814  0.006221461124
   23    4    6    6    6    6
  710.2264583      157.2420349      29.14160719      2.438251283
  55602773.00      7765745.900      1589584.300      401810.9500
  118603.3400      39300.00000      14430.35400      5793.124600
  2497.821500      1143.717300      551.3977100      277.7501400
  145.0303300      77.44745600      41.75015500      23.22694800
  12.93638700      7.026064900      3.744504700      1.899190800
 0.9146347400     0.4226736900     0.1733363600
 -0.000001787486 -0.000000941646  0.000000369672 -0.000000210150
 -0.000029778280 -0.000014803249  0.000007475619 -0.000002208202
 -0.000077473699 -0.000039657036  0.000017830828 -0.000007396355
 -0.000219006617 -0.000109128715  0.000055186460 -0.000016207648
 -0.000590314267 -0.000299796764  0.000141846518 -0.000052241141
 -0.001617918222 -0.000820946851  0.000396168005 -0.000137351228
 -0.004448877155 -0.002272304678  0.001092131489 -0.000385269720
 -0.012330231737 -0.006350263769  0.003064248923 -0.001074529197
 -0.033632795525 -0.017577836747  0.008499387264 -0.002995034682
 -0.085361657886 -0.045767211583  0.022289930714 -0.007832556343
 -0.184634876507 -0.103020111933  0.050574435822 -0.017889581126
 -0.306178391533 -0.179922340179  0.089736864417 -0.031622486183
 -0.333940588211 -0.192210170144  0.094507563214 -0.033672054157
 -0.191850066297  0.015580229083 -0.030487879070  0.013330212072
 -0.041369772500  0.389529614604 -0.292135859397  0.110413710785
 -0.001846259048  0.478691783456 -0.385623015456  0.153259488489
 -0.000145658887  0.202678825262  0.045198479659 -0.048910827343
  0.000133670639  0.026107516819  0.546128108166 -0.272994397581
  0.000015743341  0.001459784377  0.482015652466 -0.306023579442
  0.000006046762  0.000165320500  0.118269776408  0.132485407728
 -0.000001385223 -0.000003884438  0.003808978862  0.520819599460
  0.000000056778  0.000004542709  0.001381982045  0.515003612411
  0.000000067483 -0.000004598591 -0.000441904127  0.024900635706
   15    2   10   10
  121.0633589      15.90513011
  16241.49300      4278.988200      1524.597100      640.8577100
  295.5655200      143.5265800      71.89617500      36.65707500
  18.88423700      9.510456800      4.620822600      2.112008600
 0.7516843600     0.2514027000     0.7547191500E-01
  0.000085227909  0.000041409851
  0.000604051322  0.000295456839
  0.003323691269  0.001623951094
  0.014681190082  0.007257030921
  0.052573806428  0.026160221344
  0.148496094682  0.075637977863
  0.301129884361  0.152370923991
  0.388472781929  0.180766956063
  0.249911825017 -0.020930154044
  0.059008204721 -0.385959251374
  0.003152945015 -0.487169720921
  0.000572999879 -0.223602676495
 -0.000003429486 -0.021284940573
  0.000021597308  0.001549969992
 -0.000006333266 -0.000322920186
   10    1   14
  1.247433889
  1573.111300      295.9291500      108.3458800      47.08844000
  21.82595400      10.48002400      4.988653200      2.304761500
 0.9995225700     0.3810215700
 -0.000091148588
 -0.002175038166
 -0.015333911670
 -0.061822277883
 -0.166136937609
 -0.288169400187
 -0.342977516076
 -0.296630046907
 -0.187499722509
 -0.063146590208
*
Spectral Representation Operator
Core primitive basis
Exchange
End of Spectral Representation Operator


/Ca.ECP.Seijo.0s.0s.0e-AIMP-Lu2CaMg2Si3O12-Ca.
L. Seijo, Z. Barandiaran, Phys.Chem.Chem.Phys., 15(2013)19221.
Embedding AIMP of Ca(2+) in Lu2CaMg2Si3O12
   2.000    0
    0    0
*
* External AIMP:
* Local Pot. Param. : (ECP convention)
*                      A(AIMP)=-Zeff*A(ECP)
*
M1
   14
  385360.0000      60875.00000      14577.00000      4126.200000
  1323.700000      469.9300000      176.8100000      62.80500000
  25.66500000      12.14430000      3.192200000      1.623200000
 0.8310600000     0.4155900000
 0.6036614402E-01 0.7111825512E-01 0.1275885639     0.2208891812
 0.3695656566     0.5565149561     0.6367284451     0.8056061762
  1.558980577      1.289929220     0.7370928229      1.684558975
 0.8572972358     0.2376379094E-01
M2
    0
COREREP
   1.000
PROJOP
    1
   20    3    2    2    2
  299.3931996      33.09230216      3.668938502
  15429060.00      1717766.000      325290.8000      83104.29000
  25219.11000      8662.800000      3220.967000      1283.738000
  543.4592000      240.8390000      109.9677000      51.34453000
  24.28419000      10.50093000      4.922923000      2.340607000
 0.9214525000     0.3826710000     0.6533290000E-01 0.2618455000E-01
 -0.000027810228 -0.000008190314 -0.000002790681
 -0.000115765890 -0.000033740721 -0.000011837539
 -0.000336266225 -0.000098687196 -0.000033811108
 -0.000900926729 -0.000264431028 -0.000091367457
 -0.002361578750 -0.000694275812 -0.000238737155
 -0.006274387766 -0.001856486135 -0.000642510173
 -0.017042367689 -0.005074944729 -0.001743937242
 -0.044365313550 -0.013531617354 -0.004709350855
 -0.105346257694 -0.033386185773 -0.011516178822
 -0.214806076244 -0.075062782228 -0.026598418082
 -0.335646271003 -0.140370392096 -0.049664803560
 -0.309852061335 -0.186534663713 -0.071282253651
 -0.112210857533 -0.043753765309 -0.013819298224
 -0.007663824043  0.400543929055  0.181072652916
 -0.000346987856  0.569326524216  0.443717187365
  0.000032639831  0.176392801694  0.095748652780
  0.000045648249  0.007695973236 -0.686179145098
  0.000012224377  0.000762034802 -0.550886722816
  0.000001748983 -0.000213099335  0.006561117515
 -0.000000926338  0.000086381428  0.002984246748
   15    2    6    6
  26.44581776      1.830795467
  51912.48000      8887.833000      2423.370000      833.8344000
  329.6573000      142.4756000      65.46554000      31.43317000
  15.49410000      7.765115000      3.924985000      1.924370000
 0.9138395000     0.4202105000     0.1757597000
 -0.000014571818 -0.000004790484
 -0.000084904236 -0.000027608855
 -0.000435558464 -0.000144395864
 -0.001990533270 -0.000646807856
 -0.007868198750 -0.002629207087
 -0.026523237850 -0.008736623481
 -0.075267809791 -0.025927244090
 -0.171409807217 -0.059185353936
 -0.294470145975 -0.109085419006
 -0.349431701704 -0.130668170764
 -0.222260850784 -0.066022912301
 -0.049866477396  0.234791861824
 -0.001369657431  0.435360136832
 -0.000717074007  0.440399185713
  0.000247618835  0.038902349857
*
Spectral Representation Operator
Core primitive basis
Exchange
End of Spectral Representation Operator


/Mg.ECP.Seijo.0s.0s.0e-AIMP-Lu2CaMg2Si3O12-Mg(oct).
L. Seijo, Z. Barandiaran, Phys.Chem.Chem.Phys., 15(2013)19221.
Embedding AIMP of Mg(2+) in Lu2CaMg2Si3O12
   2.000    0
    0    0
*
* External AIMP:
* Local Pot. Param. : (ECP convention)
*                      A(AIMP)=-Zeff*A(ECP)
*
M1
   13
  418030.0000      70189.00000      17181.00000      4864.400000
  1561.700000      551.3800000      210.9900000      85.73900000
  34.07700000      12.89920000      5.719000000      2.683900000
  1.266210000
 0.2771106231E-01 0.3115755420E-01 0.5640904935E-01 0.9616521795E-01
 0.1589936297     0.2595896016     0.3935215472     0.4735856307
 0.4415550496     0.7399200046      1.211510227     0.9138273720
 0.1960540535
M2
    0
COREREP
   1.000
PROJOP
    1
   16    2    2    2
  97.71508149      7.143391380
  1694068.000      192336.9000      39966.58000      10658.15000
  3203.178000      1064.467000      385.2409000      149.6694000
  61.39625000      26.30771000      11.48114000      4.164014000
  1.753899000     0.7137424000     0.1131305000     0.4072101000E-01
 -0.000005879461 -0.000001747277
 -0.000046872770 -0.000011680216
 -0.000268489338 -0.000067861006
 -0.001242164673 -0.000314472796
 -0.005072282441 -0.001284676918
 -0.018035643854 -0.004624003562
 -0.055781685919 -0.014573596633
 -0.145276773091 -0.040297768737
 -0.294450977924 -0.091703375411
 -0.384516105786 -0.160703713241
 -0.224543842828 -0.134155170202
 -0.025483236550  0.218817357140
  0.002195369406  0.575779906994
 -0.001198797603  0.361172833505
  0.000227156144  0.004283952580
 -0.000072725257 -0.006607571528
   11    1    6
  4.189936084
  1213.444000      274.6633000      87.11188000      32.75345000
  13.63020000      6.039718000      2.745523000      1.238350000
 0.9013199000     0.5851599000     0.2300177000
 -0.000211716443
 -0.001987694805
 -0.010715240761
 -0.041289246334
 -0.116436366863
 -0.240433052459
 -0.332181228940
 -0.395143622690
  0.121423900524
 -0.220536508204
  0.004566724348
*
Spectral Representation Operator
Core primitive basis
Exchange
End of Spectral Representation Operator


/Si.ECP.Seijo.0s.0s.0e-AIMP-Lu2CaMg2Si3O12-Si(tet).
L. Seijo, Z. Barandiaran, Phys.Chem.Chem.Phys., 15(2013)19221.
Embedding AIMP of Si(4+) in Lu2CaMg2Si3O12
   4.000    0
    0    0
*
* External AIMP:
* Local Pot. Param. : (ECP convention)
*                      A(AIMP)=-Zeff*A(ECP)
*
M1
   12
  390564.1700      62340.17550      14730.20800      4118.807590
  1315.286930      462.0788150      175.7239970      68.67503830
  24.31956380      10.00546200      4.599620000      2.187540000
 0.1747406507E-01 0.2052037388E-01 0.3746174685E-01 0.6377708655E-01
 0.1071259720     0.1746255279     0.2440897495     0.2475511845
 0.3311584849     0.6340747468     0.5226391836     0.9950187838E-01
M2
    0
COREREP
   1.000
PROJOP
    1
   16    2    2    2
  138.1969834      12.70369963
  1453205.000      183024.6000      37505.20000      9899.251000
  3067.379000      1068.804000      406.1585000      164.8768000
  70.46529000      31.35984000      14.24023000      5.516831000
  2.457151000      1.099921000     0.2572950000     0.9153216000E-01
 -0.000039098715  0.000010879078
 -0.000053217668  0.000013903151
 -0.000449393693  0.000119903947
 -0.001979086438  0.000529379988
 -0.007581604036  0.002030072363
 -0.024909019219  0.006781159844
 -0.071383568660  0.019898366296
 -0.171131320259  0.051402744713
 -0.314720929460  0.108267659072
 -0.361785820139  0.173329820568
 -0.180704688567  0.110265205168
 -0.018630630067 -0.266278957451
  0.001287801612 -0.574895392537
 -0.000885725275 -0.313725866730
  0.000139102655 -0.011616674539
  0.000035568535  0.011747699925
   11    1    6
  8.942122035
  1761.450000      352.2744000      103.8381000      36.92634000
  14.69441000      6.229335000      2.705822000      1.176912000
 0.4186666000     0.1604789000     0.5929782000E-01
 -0.000231242356
 -0.002624934243
 -0.015858912475
 -0.064156064679
 -0.180482618624
 -0.332882044826
 -0.391949095738
 -0.213074738142
 -0.022464399700
  0.008911538263
 -0.000203472514
*
Spectral Representation Operator
Core primitive basis
Exchange
End of Spectral Representation Operator

/Si.ECP.Seijo.16s11p.1s1p.0e-AIMP-Lu2CaMg2Si3O12-Si(tet).
L. Seijo, Z. Barandiaran, Phys.Chem.Chem.Phys., 15(2013)19221.
Embedding AIMP of Si(4+) in Lu2CaMg2Si3O12 with orthogonality orbitals
   4.000    1
   16    1
  1453205.000      183024.6000      37505.20000      9899.251000
  3067.379000      1068.804000      406.1585000      164.8768000
  70.46529000      31.35984000      14.24023000      5.516831000
  2.457151000      1.099921000     0.2572950000     0.9153216000E-01
   0.000010879078
   0.000013903151
   0.000119903947
   0.000529379988
   0.002030072363
   0.006781159844
   0.019898366296
   0.051402744713
   0.108267659072
   0.173329820568
   0.110265205168
  -0.266278957451
  -0.574895392537
  -0.313725866730
  -0.011616674539
   0.011747699925
   11    1
  1761.450000      352.2744000      103.8381000      36.92634000
  14.69441000      6.229335000      2.705822000      1.176912000
 0.4186666000     0.1604789000     0.5929782000E-01
 -0.000231242356
 -0.002624934243
 -0.015858912475
 -0.064156064679
 -0.180482618624
 -0.332882044826
 -0.391949095738
 -0.213074738142
 -0.022464399700
  0.008911538263
 -0.000203472514
*
* External AIMP:
* Local Pot. Param. : (ECP convention)
*                      A(AIMP)=-Zeff*A(ECP)
*
M1
   12
  390564.1700      62340.17550      14730.20800      4118.807590
  1315.286930      462.0788150      175.7239970      68.67503830
  24.31956380      10.00546200      4.599620000      2.187540000
 0.1747406507E-01 0.2052037388E-01 0.3746174685E-01 0.6377708655E-01
 0.1071259720     0.1746255279     0.2440897495     0.2475511845
 0.3311584849     0.6340747468     0.5226391836     0.9950187838E-01
M2
    0
COREREP
   1.000
PROJOP
    1
   16    2    2    2
  138.1969834      12.70369963
  1453205.000      183024.6000      37505.20000      9899.251000
  3067.379000      1068.804000      406.1585000      164.8768000
  70.46529000      31.35984000      14.24023000      5.516831000
  2.457151000      1.099921000     0.2572950000     0.9153216000E-01
 -0.000039098715  0.000010879078
 -0.000053217668  0.000013903151
 -0.000449393693  0.000119903947
 -0.001979086438  0.000529379988
 -0.007581604036  0.002030072363
 -0.024909019219  0.006781159844
 -0.071383568660  0.019898366296
 -0.171131320259  0.051402744713
 -0.314720929460  0.108267659072
 -0.361785820139  0.173329820568
 -0.180704688567  0.110265205168
 -0.018630630067 -0.266278957451
  0.001287801612 -0.574895392537
 -0.000885725275 -0.313725866730
  0.000139102655 -0.011616674539
  0.000035568535  0.011747699925
   11    1    6
  8.942122035
  1761.450000      352.2744000      103.8381000      36.92634000
  14.69441000      6.229335000      2.705822000      1.176912000
 0.4186666000     0.1604789000     0.5929782000E-01
 -0.000231242356
 -0.002624934243
 -0.015858912475
 -0.064156064679
 -0.180482618624
 -0.332882044826
 -0.391949095738
 -0.213074738142
 -0.022464399700
  0.008911538263
 -0.000203472514
*
Spectral Representation Operator
Core primitive basis
Exchange
End of Spectral Representation Operator


/O.ECP.Seijo.0s.0s.0e-AIMP-Lu2CaMg2Si3O12-O.
L. Seijo, Z. Barandiaran, Phys.Chem.Chem.Phys., 15(2013)19221.
Embedding AIMP of O(2-)  in Lu2CaMg2Si3O12
  -2.000    0
    0    0
*
* External AIMP:
* Local Pot. Param. : (ECP convention)
*                      A(AIMP)=-Zeff*A(ECP)
*
M1
   12
  282885.8300      34740.01200      6502.573000      1486.426000
  406.8273300      124.8370000      41.98461900      13.81633000
  4.272136000      1.610321600     0.6078900000     0.2644720000
 -.2174230124E-01 -.3188761167E-01 -.6529857544E-01 -.1219742317
 -.2184811383     -.3843088314     -.5103141984     -.4603767616
 -.7578810079     -1.311165150     -1.050535288     -.6603490517E-01
M2
    0
COREREP
   1.000
PROJOP
    1
    8    2    2    2
  40.30738060      2.011436063
  2048.050000      309.0990000      70.41410000      19.70120000
  6.031450000      10.22970000     0.9340900000     0.2862500000
  0.006201811976  0.001316692821
  0.045637958342  0.009609917403
  0.200045758796  0.046601297026
  0.473802571640  0.115809102354
  0.380812473230  0.102541784341
  0.028913728696  0.065279029306
  0.024673642722 -0.465893791739
 -0.005608681773 -0.639400936339
    6    1    6
 0.4981329583
  34.97120000      7.845090000      2.303320000     0.7219800000
 0.2155300000     0.5900000000E-01
  0.013152275326
  0.085614659783
  0.248343136667
  0.442040589255
  0.500944742537
 -0.083250416464
*
Spectral Representation Operator
Core primitive basis
Exchange
End of Spectral Representation Operator


