************************************************************************
* This file is part of OpenMolcas.                                     *
*                                                                      *
* OpenMolcas is free software; you can redistribute it and/or modify   *
* it under the terms of the GNU Lesser General Public License, v. 2.1. *
* OpenMolcas is distributed in the hope that it will be useful, but it *
* is provided "as is" and without any express or implied warranties.   *
* For more details see the full text of the license in the file        *
* LICENSE or in <http://www.gnu.org/licenses/>.                        *
************************************************************************
*  ECP2SDF
/Li.ECP.Stoll.4s4p.2s2p.2e-SDF.
-Basissatz v. J. Poppe fuer PP. v. P. Fuentealba 1988
 ?????
    1.00000  1
*s functions
  4  2
  0.30473270E+01  0.60357900E+00  0.69138000E-01  0.26502000E-01
  0.65550000E-02  0.00000000E+00
 -0.14040100E+00  0.00000000E+00
  0.62375600E+00  0.00000000E+00
  0.00000000E+00  0.10000000E+01
*p functions
  4  2
  0.83715800E+00  0.17194100E+00  0.52079000E-01  0.19172000E-01
  0.43507000E-01  0.00000000E+00
  0.22964900E+00  0.00000000E+00
  0.56294900E+00  0.00000000E+00
  0.00000000E+00  0.10000000E+01
PP,li,2,2;
1; ! D POTENTIAL
2, 1.00000000,.000000000;
1; ! S-D POTENTIAL
2, 1.27600000,5.78600000;
1; ! P-D POTENTIAL
2, 1.60700000,-1.0650000;
*
Spectral
End of Spectral
*
***************************************
*   ECP2SDF
/Be.ECP.Stoll.4s4p.2s2p.2e-SDF.
-Basissatz v. J. Poppe fuer PP. v. P. Fuentealba 1988
 ?????
    2.00000   1
*s functions
  4  2
  0.11106443E+01  0.37146500E+00  0.13267800E+00  0.47751000E-01
 -0.17188900E+00  0.00000000E+00
  0.12915800E+00  0.00000000E+00
  0.61485900E+00  0.00000000E+00
  0.00000000E+00  0.10000000E+01
*p functions
  4  2
  0.28845777E+01  0.78014400E+00  0.22006100E+00  0.66407000E-01
  0.31525000E-01  0.00000000E+00
  0.14388800E+00  0.00000000E+00
  0.48461200E+00  0.00000000E+00
  0.00000000E+00  0.10000000E+01
PP,be,2,2;
1; ! D POTENTIAL
2, 1.00000000,.000000000;
1; ! S-D POTENTIAL
2, 2.65300000,13.3250000;
1; ! P-D POTENTIAL
2, 3.12000000,-1.5740000;
*
Spectral
End of Spectral
*
******************************************
*  ECP2MWB
/B.ECP.Stoll.4s4p.2s2p.3e-MWB.
Ref 4: A. Bergner, M. Dolg, W. Kuechle, H. Stoll, H. Preuss,
 * Mol. Phys. 80, 1431 (1993).
    3.00000  1
*s functions
  4  2
  0.16905600E+01  0.98366600E+00  0.25697900E+00  0.95038000E-01
 -0.27220800E+00  0.00000000E+00
  0.20112800E+00  0.00000000E+00
  0.57776300E+00  0.00000000E+00
  0.00000000E+00  0.10000000E+01
*p functions
  4  2
  0.53999130E+01  0.12712170E+01  0.36190900E+00  0.10766100E+00
  0.34941000E-01  0.00000000E+00
  0.18683400E+00  0.00000000E+00
  0.46846300E+00  0.00000000E+00
  0.00000000E+00  0.10000000E+01
PP,b ,2,3;
1; ! F POTENTIAL
2, 1.00000000,.000000000;
1; ! S-F POTENTIAL
2, 4.50610000,23.9929600;
1; ! P-F POTENTIAL
2, 5.22950000,-1.7667240;
1; ! D-F POTENTIAL
2,0.010800000,-.00175400;
*
Spectral
End of Spectral
*
***************************************
*  ECP2MWB
/C.ECP.Stoll.4s4p.2s2p.4e-MWB.
Ref 4: A. Bergner, M. Dolg, W. Kuechle, H. Stoll, H. Preuss,
 * Mol. Phys. 80, 1431 (1993).
    4.00000  1
*s functions
  4  2
  0.22631010E+01  0.17731860E+01  0.40861900E+00  0.13917500E+00
  0.49654800E+00  0.00000000E+00
 -0.42239100E+00  0.00000000E+00
 -0.59935600E+00  0.00000000E+00
  0.00000000E+00  0.10000000E+01
*p functions
  4  2
  0.83830250E+01  0.19931320E+01  0.55954300E+00  0.15612600E+00
 -0.38544000E-01  0.00000000E+00
 -0.20318500E+00  0.00000000E+00
 -0.49817600E+00  0.00000000E+00
  0.00000000E+00  0.10000000E+01
PP,c ,2,3;
1; ! F POTENTIAL
2, 1.00000000,.000000000;
1; ! S-F POTENTIAL
2, 6.40105200,33.1216380;
1; ! P-F POTENTIAL
2, 7.30774700,-1.9862570;
1; ! D-F POTENTIAL
2, 5.96179600,-9.4543180;
*
Spectral
End of Spectral
*
***************************************
*  ECP2MWB  (+ d-functions)
/C.ECP.Stoll.4s4p1d.2s2p1d.4e-MWB.
Ref 4: A. Bergner, M. Dolg, W. Kuechle, H. Stoll, H. Preuss,
 * Mol. Phys. 80, 1431 (1993).
    4.00000  2
*s functions
  4  2
  0.22631010E+01  0.17731860E+01  0.40861900E+00  0.13917500E+00
  0.49654800E+00  0.00000000E+00
 -0.42239100E+00  0.00000000E+00
 -0.59935600E+00  0.00000000E+00
  0.00000000E+00  0.10000000E+01
*p functions
  4  2
  0.83830250E+01  0.19931320E+01  0.55954300E+00  0.15612600E+00
 -0.38544000E-01  0.00000000E+00
 -0.20318500E+00  0.00000000E+00
 -0.49817600E+00  0.00000000E+00
  0.00000000E+00  0.10000000E+01
*d functions
  1  1
  0.10000000E+01
  0.10000000E+01
PP,c ,2,3;
1; ! F POTENTIAL
2, 1.00000000,.000000000;
1; ! S-F POTENTIAL
2, 6.40105200,33.1216380;
1; ! P-F POTENTIAL
2, 7.30774700,-1.9862570;
1; ! D-F POTENTIAL
2, 5.96179600,-9.4543180;
*
Spectral
End of Spectral
*
***************************************
*  ECP2MWB
/N.ECP.Stoll.4s4p.2s2p.5e-MWB.
Ref 4: A. Bergner, M. Dolg, W. Kuechle, H. Stoll, H. Preuss,
 * Mol. Phys. 80, 1431 (1993).
    5.00000  1
*s functions
  4  2
  0.32656839E+02  0.45891890E+01  0.70625100E+00  0.21639900E+00
 -0.13794000E-01  0.00000000E+00
  0.12912900E+00  0.00000000E+00
 -0.56809400E+00  0.00000000E+00
  0.00000000E+00  0.10000000E+01
*p functions
  4  2
  0.12146974E+02  0.28842650E+01  0.80856400E+00  0.22216300E+00
 -0.41296000E-01  0.00000000E+00
 -0.21400900E+00  0.00000000E+00
 -0.50278300E+00  0.00000000E+00
  0.00000000E+00  0.10000000E+01
PP,n ,2,3;
1; ! F POTENTIAL
2, 1.00000000,.000000000;
1; ! S-F POTENTIAL
2, 7.97723200,38.5338310;
1; ! P-F POTENTIAL
2, 10.1838540,-2.5508100;
1; ! D-F POTENTIAL
2, 11.5599470,-2.9955450;
*
Spectral
End of Spectral
*
***************************************
*  ECP2MWB   (+ d-functions)
/N.ECP.Stoll.4s4p1d.2s2p1d.5e-MWB.
Ref 4: A. Bergner, M. Stoll, W. Kuechle, H. Stoll, H. Preuss,
 * Mol. Phys. 80, 1431 (1993).
    5.00000  2
*s functions
  4  2
  0.32656839E+02  0.45891890E+01  0.70625100E+00  0.21639900E+00
 -0.13794000E-01  0.00000000E+00
  0.12912900E+00  0.00000000E+00
 -0.56809400E+00  0.00000000E+00
  0.00000000E+00  0.10000000E+01
*p functions
  4  2
  0.12146974E+02  0.28842650E+01  0.80856400E+00  0.22216300E+00
 -0.41296000E-01  0.00000000E+00
 -0.21400900E+00  0.00000000E+00
 -0.50278300E+00  0.00000000E+00
  0.00000000E+00  0.10000000E+01
*d functions
  1  1
  0.10000000E+01
  0.10000000E+01
PP,n ,2,3;
1; ! F POTENTIAL
2, 1.00000000,.000000000;
1; ! S-F POTENTIAL
2, 7.97723200,38.5338310;
1; ! P-F POTENTIAL
2, 10.1838540,-2.5508100;
1; ! D-F POTENTIAL
2, 11.5599470,-2.9955450;
*
Spectral
End of Spectral
*
***************************************
*  ECP2MWB
/O.ECP.Stoll.4s5p.2s3p.6e-MWB.
Ref 4: A. Bergner, M. Dolg, W. Kuechle, H. Stoll, H. Preuss,
 * Mol. Phys. 80, 1431 (1993).
    6.00000  1
*s functions
  4  2
  0.47105518E+02  0.59113460E+01  0.97648300E+00  0.29607000E+00
 -0.14408000E-01  0.00000000E+00
  0.12956800E+00  0.00000000E+00
 -0.56311800E+00  0.00000000E+00
  0.00000000E+00  0.10000000E+01
*p functions
  5  3
  0.16692219E+02  0.39007020E+01  0.10782530E+01  0.28418900E+00  0.70200000E-01
  0.44856000E-01  0.00000000E+00  0.00000000E+00
  0.22261300E+00  0.00000000E+00  0.00000000E+00
  0.50018800E+00  0.00000000E+00  0.00000000E+00
  0.00000000E+00  0.10000000E+01  0.00000000E+00
  0.00000000E+00  0.00000000E+00  0.10000000E+01
PP,o ,2,3;
1; ! F POTENTIAL
2, 1.00000000,.000000000;
1; ! S-F POTENTIAL
2, 10.4456700,50.7710690;
1; ! P-F POTENTIAL
2, 18.0451740,-4.9035510;
1; ! D-F POTENTIAL
2, 8.16479800,-3.3121240;
*
Spectral
End of Spectral
*
***************************************
*  ECP2MWB    (+ d-functions)
/O.ECP.Stoll.4s5p1d.2s3p1d.6e-MWB.
Ref 4: A. Bergner, M. Dolg, W. Kuechle, H. Stoll, H. Preuss,
 * Mol. Phys. 80, 1431 (1993).
    6.00000  2
*s functions
  4  2
  0.47105518E+02  0.59113460E+01  0.97648300E+00  0.29607000E+00
 -0.14408000E-01  0.00000000E+00
  0.12956800E+00  0.00000000E+00
 -0.56311800E+00  0.00000000E+00
  0.00000000E+00  0.10000000E+01
*p functions
  5  3
  0.16692219E+02  0.39007020E+01  0.10782530E+01  0.28418900E+00  0.70200000E-01
  0.44856000E-01  0.00000000E+00  0.00000000E+00
  0.22261300E+00  0.00000000E+00  0.00000000E+00
  0.50018800E+00  0.00000000E+00  0.00000000E+00
  0.00000000E+00  0.10000000E+01  0.00000000E+00
  0.00000000E+00  0.00000000E+00  0.10000000E+01
*d functions
  1  1
  0.10000000E+01
  0.10000000E+01
PP,o ,2,3;
1; ! F POTENTIAL
2, 1.00000000,.000000000;
1; ! S-F POTENTIAL
2, 10.4456700,50.7710690;
1; ! P-F POTENTIAL
2, 18.0451740,-4.9035510;
1; ! D-F POTENTIAL
2, 8.16479800,-3.3121240;
*
Spectral
End of Spectral
*
***************************************
*  ECP2MWB
/O.ECP.Stoll.4s5p3d.2s3p2d.6e-MWB.
Ref 4: A. Bergner, M. Dolg, W. Kuechle, H. Stoll, H. Preuss,
 * Mol. Phys. 80, 1431 (1993).
    6.00000  2
*s functions
  4  2
  0.47105518E+02  0.59113460E+01  0.97648300E+00  0.29607000E+00
 -0.14408000E-01  0.00000000E+00
  0.12956800E+00  0.00000000E+00
 -0.56311800E+00  0.00000000E+00
  0.00000000E+00  0.10000000E+01
*p functions
  5  3
  0.16692219E+02  0.39007020E+01  0.10782530E+01  0.28418900E+00
0.70200000E-01
  0.44856000E-01  0.00000000E+00  0.00000000E+00
  0.22261300E+00  0.00000000E+00  0.00000000E+00
  0.50018800E+00  0.00000000E+00  0.00000000E+00
  0.00000000E+00  0.10000000E+01  0.00000000E+00
  0.00000000E+00  0.00000000E+00  0.10000000E+01
*d functions
  3  2
  0.26950000E+01  0.72210000E+00  0.19350000E+00
  0.31690979E+00 -0.72537430E+00
  0.72182059E+00  0.09198569E+00
  0.16489448E+00  0.74781734E+00
PP,o ,2,3;
1; ! F POTENTIAL
2, 1.00000000,.000000000;
1; ! S-F POTENTIAL
2, 10.4456700,50.7710690;
1; ! P-F POTENTIAL
2, 18.0451740,-4.9035510;
1; ! D-F POTENTIAL
2, 8.16479800,-3.3121240;
*
Spectral
End of Spectral
*
***************************************
*  ECP2MWB
/F.ECP.Stoll.4s5p.2s3p.7e-MWB.
Ref 4: A. Bergner, M. Dolg, W. Kuechle, H. Stoll, H. Preuss,
 * Mol. Phys. 80, 1431 (1993).
    7.00000   1
*s functions
  4  2
  0.51642763E+02  0.94142770E+01  0.12141230E+01  0.37008100E+00
  0.85660000E-02  0.00000000E+00
 -0.15300900E+00  0.00000000E+00
  0.58983500E+00  0.00000000E+00
  0.00000000E+00  0.10000000E+01
*p functions
  5  3
  0.22300830E+02  0.49545730E+01  0.13423110E+01  0.34653000E+00  0.84772000E-01
  0.51851000E-01  0.00000000E+00  0.00000000E+00
  0.23728700E+00  0.00000000E+00  0.00000000E+00
  0.50766600E+00  0.00000000E+00  0.00000000E+00
  0.00000000E+00  0.10000000E+01  0.00000000E+00
  0.00000000E+00  0.00000000E+00  0.10000000E+01
PP,f ,2,3;
1; ! F POTENTIAL
2, 1.00000000,.000000000;
2; ! S-F POTENTIAL
2, 22.3504000,102.597952;
2, 11.1752000,19.0496630;
2; ! P-F POTENTIAL
2, 26.4768000,-15.143960;
2, 13.2384000,2.80292100;
1; ! D-F POTENTIAL
2,0.031600000,-.00186300;
*
Spectral
End of Spectral
*
***************************************
*  ECP2MWB     (+ d-functions)
/F.ECP.Stoll.4s5p1d.2s3p1d.7e-MWB.
Ref 4: A. Bergner, M. Dolg, W. Kuechle, H. Stoll, H. Preuss,
 * Mol. Phys. 80, 1431 (1993).
    7.00000   2
*s functions
  4  2
  0.51642763E+02  0.94142770E+01  0.12141230E+01  0.37008100E+00
  0.85660000E-02  0.00000000E+00
 -0.15300900E+00  0.00000000E+00
  0.58983500E+00  0.00000000E+00
  0.00000000E+00  0.10000000E+01
*p functions
  5  3
  0.22300830E+02  0.49545730E+01  0.13423110E+01  0.34653000E+00  0.84772000E-01
  0.51851000E-01  0.00000000E+00  0.00000000E+00
  0.23728700E+00  0.00000000E+00  0.00000000E+00
  0.50766600E+00  0.00000000E+00  0.00000000E+00
  0.00000000E+00  0.10000000E+01  0.00000000E+00
  0.00000000E+00  0.00000000E+00  0.10000000E+01
*d functions
  1  1
  0.10000000E+01
  0.10000000E+01
PP,f ,2,3;
1; ! F POTENTIAL
2, 1.00000000,.000000000;
2; ! S-F POTENTIAL
2, 22.3504000,102.597952;
2, 11.1752000,19.0496630;
2; ! P-F POTENTIAL
2, 26.4768000,-15.143960;
2, 13.2384000,2.80292100;
1; ! D-F POTENTIAL
2,0.031600000,-.00186300;
*
Spectral
End of Spectral
*
***************************************
*  ECP2MWB
/Ne.ECP.Stoll.7s7p3d1f.4s4p3d1f.8e-MWB.
Ref 1: P. Fuentealba, H. Preuss, H. Stoll, L. v. Szentpaly,
 * Chem. Phys. Lett. 89, 418 (1982).
    8.00000  3
*s functions
  7  4
  0.61200244E+03  0.80952044E+02  0.13864201E+02  0.87455260E+01  0.19923460E+01
  0.80080300E+00  0.30777400E+00
 -0.61070000E-02  0.00000000E+00  0.00000000E+00  0.00000000E+00
 -0.42603000E-01  0.00000000E+00  0.00000000E+00  0.00000000E+00
  0.45219600E+00  0.00000000E+00  0.00000000E+00  0.00000000E+00
  0.57995600E+00  0.00000000E+00  0.00000000E+00  0.00000000E+00
  0.00000000E+00  0.10000000E+01  0.00000000E+00  0.00000000E+00
  0.00000000E+00  0.00000000E+00  0.10000000E+01  0.00000000E+00
  0.00000000E+00  0.00000000E+00  0.00000000E+00  0.10000000E+01
*p functions
  7  4
  0.15831454E+03  0.37301128E+02  0.12705558E+02  0.45870870E+01  0.17356620E+01
  0.64055300E+00  0.22254400E+00
  0.78510000E-02  0.00000000E+00  0.00000000E+00  0.00000000E+00
  0.71316000E-01  0.00000000E+00  0.00000000E+00  0.00000000E+00
  0.28639200E+00  0.00000000E+00  0.00000000E+00  0.00000000E+00
  0.73539400E+00  0.00000000E+00  0.00000000E+00  0.00000000E+00
  0.00000000E+00  0.10000000E+01  0.00000000E+00  0.00000000E+00
  0.00000000E+00  0.00000000E+00  0.10000000E+01  0.00000000E+00
  0.00000000E+00  0.00000000E+00  0.00000000E+00  0.10000000E+01
*d functions
  3  3
  0.42748000E+01  0.11717000E+01  0.32110000E+00
  0.10000000E+01  0.00000000E+00  0.00000000E+00
  0.00000000E+00  0.10000000E+01  0.00000000E+00
  0.00000000E+00  0.00000000E+00  0.10000000E+01
*f functions
  1  1
  0.25795000E+01
  0.10000000E+01
PP,ne,2,3;
1; ! F POTENTIAL
2, 1.00000000,.000000000;
2; ! S-F POTENTIAL
2, 31.8601620,112.525436;
2, 12.3622190,28.3008345;
2; ! P-F POTENTIAL
2, 21.5080340,-11.126585;
2, 12.9104470,3.38754919;
1; ! D-F POTENTIAL
2,0.850385000,-.18408921;
*
Spectral
End of Spectral
*
***************************************
*  ECP10SDF
/Na.ECP.Stoll.4s4p.2s2p.1e-SDF.
-Basissatz v. J. Poppe fuer PP. v. P. Fuentealba 1988
 ?????
    1.00000   1
*s functions
  4  2
  0.26033363E+01  0.51721700E+00  0.58196000E-01  0.23141000E-01
  0.88240000E-02  0.00000000E+00
 -0.18322700E+00  0.00000000E+00
  0.65201700E+00  0.00000000E+00
  0.00000000E+00  0.10000000E+01
*p functions
  4  2
  0.49920600E+00  0.79219000E-01  0.29946000E-01  0.12605000E-01
  0.18547000E-01  0.00000000E+00
  0.27621100E+00  0.00000000E+00
  0.58700400E+00  0.00000000E+00
  0.00000000E+00  0.10000000E+01
PP,na,10,3;
1; ! F POTENTIAL
2, 1.00000000,.000000000;
1; ! S-F POTENTIAL
2, 1.37800000,10.8390000;
1; ! P-F POTENTIAL
2,0.663900000,2.30300000;
1; ! D-F POTENTIAL
2,0.924900000,-1.7770000;
*
Spectral
End of Spectral
*
***************************************
*  ECP10SDF
/Mg.ECP.Stoll.4s4p.2s2p.2e-SDF.
-Basissatz v. J. Poppe fuer PP. v. P. Fuentealba 1988
 ?????
    2.00000   1
*s functions
  4  2
  0.24257193E+01  0.82262500E+00  0.10774900E+00  0.39485000E-01
  0.26764000E-01  0.00000000E+00
 -0.22388000E+00  0.00000000E+00
  0.62046400E+00  0.00000000E+00
  0.00000000E+00  0.10000000E+01
*p functions
  4  2
  0.76904700E+00  0.18867500E+00  0.75101000E-01  0.29497000E-01
 -0.36648000E-01  0.00000000E+00
  0.24314500E+00  0.00000000E+00
  0.55478400E+00  0.00000000E+00
  0.00000000E+00  0.10000000E+01
PP,mg,10,3;
1; ! F POTENTIAL
2, 1.00000000,.000000000;
1; ! S-F POTENTIAL
2, 1.73200000,14.6760000;
1; ! P-F POTENTIAL
2, 1.11500000,5.17570000;
1; ! D-F POTENTIAL
2, 1.20300000,-1.8160000;
*
Spectral
End of Spectral
*
***************************************
*  ECP10MWB
/Al.ECP.Stoll.4s4p.2s2p.3e-MWB.
Ref 4: A. Bergner, M. Dolg, W. Kuechle, H. Stoll, H. Preuss,
 * Mol. Phys. 80, 1431 (1993).
    3.00000   1
*s functions
  4  2
  0.27863370E+01  0.11436350E+01  0.17002700E+00  0.67324000E-01
 -0.46411000E-01  0.00000000E+00
  0.27447200E+00  0.00000000E+00
 -0.62523400E+00  0.00000000E+00
  0.00000000E+00  0.10000000E+01
*p functions
  4  2
  0.98379400E+00  0.35824500E+00  0.13815800E+00  0.44975000E-01
  0.52036000E-01  0.00000000E+00
 -0.15509400E+00  0.00000000E+00
 -0.53258400E+00  0.00000000E+00
  0.00000000E+00  0.10000000E+01
PP,al,10,3;
1; ! F POTENTIAL
2, 1.00000000,.000000000;
1; ! S-F POTENTIAL
2, 2.19822500,20.4098130;
1; ! P-F POTENTIAL
2, 1.60139500,8.98049500;
1; ! D-F POTENTIAL
2, 1.49902600,-1.9704110;
*
Spectral
End of Spectral
*
***************************************
*  ECP10MWB
/Si.ECP.Stoll.4s4p.2s2p.4e-MWB.
Ref 4: A. Bergner, M. Stoll, W. Kuechle, H. Stoll, H. Preuss,
 * Mol. Phys. 80, 1431 (1993).
    4.00000   1
*s functions
  4  2
  0.40143780E+01  0.13937070E+01  0.25165800E+00  0.10018000E+00
 -0.39508000E-01  0.00000000E+00
  0.29615000E+00  0.00000000E+00
 -0.59975200E+00  0.00000000E+00
  0.00000000E+00  0.10000000E+01
*p functions
  4  2
  0.11024810E+01  0.58312700E+00  0.20867500E+00  0.69147000E-01
  0.84583000E-01  0.00000000E+00
 -0.18574800E+00  0.00000000E+00
 -0.55485200E+00  0.00000000E+00
  0.00000000E+00  0.10000000E+01
PP,si,10,3;
1; ! F POTENTIAL
2, 1.00000000,.000000000;
1; ! S-F POTENTIAL
2, 2.71362197,26.6233187;
1; ! P-F POTENTIAL
2, 1.96687987,10.9299539;
1; ! D-F POTENTIAL
2, 2.71001600,-4.6694120;
*
Spectral
End of Spectral
*
***************************************
*  ECP10MWB
/P.ECP.Stoll.4s4p.2s2p.5e-MWB.
Ref 4: A. Bergner, M. Dolg, W. Kuechle, H. Stoll, H. Preuss,
 * Mol. Phys. 80, 1431 (1993).
    5.00000   1
*s functions
  4  2
  0.67223080E+01  0.16240630E+01  0.33192900E+00  0.12081900E+00
 -0.32455000E-01  0.00000000E+00
  0.28505600E+00  0.00000000E+00
 -0.64691400E+00  0.00000000E+00
  0.00000000E+00  0.10000000E+01
*p functions
  4  2
  0.12832210E+01  0.59972500E+00  0.22775900E+00  0.84424000E-01
 -0.55962000E-01  0.00000000E+00
  0.28636300E+00  0.00000000E+00
  0.55225700E+00  0.00000000E+00
  0.00000000E+00  0.10000000E+01
PP,p ,10,3;
1; ! F POTENTIAL
2, 1.00000000,.000000000;
1; ! S-F POTENTIAL
2, 2.94055986,26.5322613;
1; ! P-F POTENTIAL
2, 2.22771255,11.4972102;
1; ! D-F POTENTIAL
2, 5.66170600,-16.772780;
*
Spectral
End of Spectral
*
***************************************
*  ECP10MWB
/S.ECP.Stoll.4s5p.2s3p.6e.
Rref 4: A. Bergner, M. Dolg, W. Kuechle, H. Stoll, H. Preuss,
 * Mol. Phys. 80, 1431 (1993).
     6.00000   2
*s functions
  4  2
  0.68335180E+01  0.20777380E+01  0.41912100E+00  0.15323700E+00
 -0.43875000E-01  0.00000000E+00
  0.31989400E+00  0.00000000E+00
 -0.66123300E+00  0.00000000E+00
  0.00000000E+00  0.10000000E+01
*p functions
  5  2
  0.18171390E+01  0.85507000E+00  0.31205300E+00  0.10168700E+00  0.29810000E-01
 -0.79227000E-01  0.00000000E+00  0.00000000E+00
  0.26367100E+00  0.00000000E+00  0.00000000E+00
  0.58068200E+00  0.00000000E+00  0.00000000E+00
  0.00000000E+00  0.10000000E+01  0.00000000E+00
  0.00000000E+00  0.00000000E+00  0.10000000E+01
PP,s ,10,3;
1; ! F POTENTIAL
2, 1.00000000,.000000000;
1; ! S-F POTENTIAL
2, 3.74389164,37.9748190;
1; ! P-F POTENTIAL
2, 3.08608744,18.7905293;
1; ! D-F POTENTIAL
2, 4.86241400,-7.8379640;
*
Spectral
End of Spectral
*
***************************************
*  ECP10MWB  (+ d-functions)
/S.ECP.Stoll.4s5p2d.2s3p2d.6e.
Rref 4: A. Bergner, M. Dolg, W. Kuechle, H. Stoll, H. Preuss,
 * Mol. Phys. 80, 1431 (1993).
     6.00000   2
*s functions
  4  2
  0.68335180E+01  0.20777380E+01  0.41912100E+00  0.15323700E+00
 -0.43875000E-01  0.00000000E+00
  0.31989400E+00  0.00000000E+00
 -0.66123300E+00  0.00000000E+00
  0.00000000E+00  0.10000000E+01
*p functions
  5  2
  0.18171390E+01  0.85507000E+00  0.31205300E+00  0.10168700E+00  0.29810000E-01
 -0.79227000E-01  0.00000000E+00  0.00000000E+00
  0.26367100E+00  0.00000000E+00  0.00000000E+00
  0.58068200E+00  0.00000000E+00  0.00000000E+00
  0.00000000E+00  0.10000000E+01  0.00000000E+00
  0.00000000E+00  0.00000000E+00  0.10000000E+01
*d functions
 2  2
 0.819000000E+00  0.269000000E+00
 0.100000000E+01  0.000000000E+00
 0.000000000E+00  0.100000000E+01
PP,s ,10,3;
1; ! F POTENTIAL
2, 1.00000000,.000000000;
1; ! S-F POTENTIAL
2, 3.74389164,37.9748190;
1; ! P-F POTENTIAL
2, 3.08608744,18.7905293;
1; ! D-F POTENTIAL
2, 4.86241400,-7.8379640;
*
Spectral
End of Spectral
*
***************************************
*  ECP10MWB
/Cl.ECP.Stoll.4s5p.2s3p.7e-MWB.
Ref 4: A. Bergner, M. Dolg, W. Kuechle, H. Stoll, H. Preuss,
 * Mol. Phys. 80, 1431 (1993).
    7.00000   1
*s functions
  4  2
  0.14073076E+02  0.23315650E+01  0.50710000E+00  0.18243300E+00
  0.20345000E-01  0.00000000E+00
 -0.28922300E+00  0.00000000E+00
  0.63036700E+00  0.00000000E+00
  0.00000000E+00  0.10000000E+01
*p functions
  5  3
  0.33531290E+01  0.78568600E+00  0.26745400E+00  0.78275000E-01  0.15477000E-01
 -0.41552000E-01  0.00000000E+00  0.00000000E+00
  0.39974800E+00  0.00000000E+00  0.00000000E+00
  0.59182900E+00  0.00000000E+00  0.00000000E+00
  0.00000000E+00  0.10000000E+01  0.00000000E+00
  0.00000000E+00  0.00000000E+00  0.10000000E+01
PP,cl,10,3;
1; ! F POTENTIAL
2, 1.00000000,.000000000;
2; ! S-F POTENTIAL
2, 6.39430000,33.1366320;
2, 3.19710000,16.2707280;
2; ! P-F POTENTIAL
2, 5.62070000,24.4169930;
2, 2.81030000,7.68305000;
1; ! D-F POTENTIAL
2, 5.33810000,-8.5876490;
*
Spectral
End of Spectral
*
***************************************
*  ECP10MWB
/Ar.ECP.Stoll.6s6p3d1f.4s4p3d1f.8e-MWB.
Ref 1: P. Fuentealba, H. Preuss, H. Stoll, L. v. Szentpaly,
 * Chem. Phys. Lett. 89, 418 (1982).
    8.00000   3
*s functions
  6  4
  0.17466966E+03  0.12695768E+02  0.29178340E+01  0.67084000E+00  0.29911200E+00
  0.13140200E+00
  0.25870000E-02  0.00000000E+00  0.00000000E+00  0.00000000E+00
  0.62313000E-01  0.00000000E+00  0.00000000E+00  0.00000000E+00
 -0.10421580E+01  0.00000000E+00  0.00000000E+00  0.00000000E+00
  0.00000000E+00  0.10000000E+01  0.00000000E+00  0.00000000E+00
  0.00000000E+00  0.00000000E+00  0.10000000E+01  0.00000000E+00
  0.00000000E+00  0.00000000E+00  0.00000000E+00  0.10000000E+01
*p functions
  6  4
  0.19887221E+02  0.37761720E+01  0.12115160E+01  0.53849900E+00  0.22957500E+00
  0.95103000E-01
  0.23346000E-01  0.00000000E+00  0.00000000E+00  0.00000000E+00
 -0.22462100E+00  0.00000000E+00  0.00000000E+00  0.00000000E+00
  0.11375960E+01  0.00000000E+00  0.00000000E+00  0.00000000E+00
  0.00000000E+00  0.10000000E+01  0.00000000E+00  0.00000000E+00
  0.00000000E+00  0.00000000E+00  0.10000000E+01  0.00000000E+00
  0.00000000E+00  0.00000000E+00  0.00000000E+00  0.10000000E+01
*d functions
  3  3
  0.14509000E+01  0.43850000E+00  0.13250000E+00
  0.10000000E+01  0.00000000E+00  0.00000000E+00
  0.00000000E+00  0.10000000E+01  0.00000000E+00
  0.00000000E+00  0.00000000E+00  0.10000000E+01
*f functions
  1  1
  0.93050000E+00
  0.10000000E+01
PP,ar,10,4;
1; ! G POTENTIAL
2, 1.00000000,.000000000;
2; ! S-G POTENTIAL
2, 10.2617210,68.6677880;
2, 3.95272500,24.0427663;
2; ! P-G POTENTIAL
2, 5.39271400,27.7307633;
2, 2.69996700,4.04545904;
2; ! D-G POTENTIAL
2, 8.08623500,-8.1374770;
2, 4.01663200,-1.6645281;
1; ! F-G POTENTIAL
2, 5.20845900,-3.4000984;
*
Spectral
End of Spectral
*
***************************************
*  ECP10MWB
/K.ECP.Stoll.7s6p.5s4p.9e-MWB.
-Basissatz fuer PP. von A.Bergner, Arbeitsbericht 1990
 ?????
    9.00000   1
*s functions
  7  5
  0.82233620E+01  0.37972110E+01  0.13316070E+01  0.66628200E+00  0.27280700E+00
  0.37092000E-01  0.16543000E-01
  0.10414500E+00  0.00000000E+00  0.00000000E+00  0.00000000E+00  0.00000000E+00
 -0.43915800E+00  0.00000000E+00  0.00000000E+00  0.00000000E+00  0.00000000E+00
  0.52191000E-01  0.00000000E+00  0.00000000E+00  0.00000000E+00  0.00000000E+00
  0.00000000E+00  0.10000000E+01  0.00000000E+00  0.00000000E+00  0.00000000E+00
  0.00000000E+00  0.00000000E+00  0.10000000E+01  0.00000000E+00  0.00000000E+00
  0.00000000E+00  0.00000000E+00  0.00000000E+00  0.10000000E+01  0.00000000E+00
  0.00000000E+00  0.00000000E+00  0.00000000E+00  0.00000000E+00  0.10000000E+01
*p functions
  6  4
  0.21605670E+02  0.11002120E+01  0.50434500E+00  0.31786900E+00  0.14815000E+00
  0.22139000E-01
 -0.11737000E-01  0.00000000E+00  0.00000000E+00  0.00000000E+00
 -0.40767500E+00  0.00000000E+00  0.00000000E+00  0.00000000E+00
 -0.33329200E+00  0.00000000E+00  0.00000000E+00  0.00000000E+00
  0.00000000E+00  0.10000000E+01  0.00000000E+00  0.00000000E+00
  0.00000000E+00  0.00000000E+00  0.10000000E+01  0.00000000E+00
  0.00000000E+00  0.00000000E+00  0.00000000E+00  0.10000000E+01
PP,k ,10,4;
1; ! G POTENTIAL
2, 1.00000000,.000000000;
1; ! S-G POTENTIAL
2, 6.84380700,92.2526390;
1; ! P-G POTENTIAL
2, 4.21785700,23.4980350;
1; ! D-G POTENTIAL
2, 6.49753700,-7.3154200;
1; ! F-G POTENTIAL
2, 6.12361300,-3.8583200;
*
Spectral
End of Spectral
*
***************************************
*  ECP10MWB
/Ca.ECP.Stoll.6s6p5d.4s4p2d.10e-MWB.
Ref 6: M. Kaupp, P. v. R. Schleyer, H. Stoll, H. Preuss,
 * J. Chem. Phys. 94, 1360 (1991).
   10.00000   2
*s functions
  6  4
  0.12307521E+02  0.43931510E+01  0.93797500E+00  0.42168800E+00  0.58017000E-01
  0.23222000E-01
  0.58740000E-01  0.00000000E+00  0.00000000E+00  0.00000000E+00
 -0.40134400E+00  0.00000000E+00  0.00000000E+00  0.00000000E+00
  0.59287500E+00  0.00000000E+00  0.00000000E+00  0.00000000E+00
  0.00000000E+00  0.10000000E+01  0.00000000E+00  0.00000000E+00
  0.00000000E+00  0.00000000E+00  0.10000000E+01  0.00000000E+00
  0.00000000E+00  0.00000000E+00  0.00000000E+00  0.10000000E+01
*p functions
  6  4
  0.59742860E+01  0.15674060E+01  0.65624200E+00  0.25849800E+00  0.81000000E-01
  0.30000000E-01
 -0.82302000E-01  0.00000000E+00  0.00000000E+00  0.00000000E+00
  0.34651100E+00  0.00000000E+00  0.00000000E+00  0.00000000E+00
  0.56014700E+00  0.00000000E+00  0.00000000E+00  0.00000000E+00
  0.00000000E+00  0.10000000E+01  0.00000000E+00  0.00000000E+00
  0.00000000E+00  0.00000000E+00  0.10000000E+01  0.00000000E+00
  0.00000000E+00  0.00000000E+00  0.00000000E+00  0.10000000E+01
*d functions
  5  2
  0.72317000E+01  0.19648690E+01  0.62030300E+00  0.18126000E+00  0.49107000E-01
  0.50360000E-01  0.00000000E+00
  0.17334300E+00  0.00000000E+00
  0.30197800E+00  0.00000000E+00
  0.00000000E+00  0.43805500E+00
  0.00000000E+00  0.46472000E+00
PP,ca,10,4;
1; ! G POTENTIAL
2, 1.00000000,.000000000;
2; ! S-G POTENTIAL
2, 11.2316720,138.785174;
2, 4.67196000,16.5042440;
2; ! P-G POTENTIAL
2, 11.1569070,83.1236640;
2, 4.81014100,13.5022720;
2; ! D-G POTENTIAL
2, 13.7547280,-16.201965;
2, 4.76247000,-1.1323900;
1; ! F-G POTENTIAL
2, 12.765846,-26.7281780;
*
Spectral
End of Spectral
*
***************************************
*  ECP10MDF
/Sc.ECP.Stoll.8s7p6d1f.6s5p3d1f.11e-MDF.
Ref 7: M. Dolg, U. Wedig, H. Stoll, H. Preuss, J. Chem. Phys. 86, 866 (1987). *
 *Challenge of Transition Metals ,A. Veillard, Reidel, Dordrecht (1986), p.79.
    11.0000   3
*s functions
  8  6
  0.10009260E+02  0.84707620E+01  0.41791160E+01  0.10692080E+01  0.44124800E+00
  0.64432000E-01  0.27200000E-01  0.10000000E-01
  0.10078960E+01  0.00000000E+00  0.00000000E+00  0.00000000E+00  0.00000000E+00
  0.00000000E+00
 -0.11766550E+01  0.00000000E+00  0.00000000E+00  0.00000000E+00  0.00000000E+00
  0.00000000E+00
 -0.80264700E+00  0.00000000E+00  0.00000000E+00  0.00000000E+00  0.00000000E+00
  0.00000000E+00
  0.00000000E+00  0.10000000E+01  0.00000000E+00  0.00000000E+00  0.00000000E+00
  0.00000000E+00
  0.00000000E+00  0.00000000E+00  0.10000000E+01  0.00000000E+00  0.00000000E+00
  0.00000000E+00
  0.00000000E+00  0.00000000E+00  0.00000000E+00  0.10000000E+01  0.00000000E+00
  0.00000000E+00
  0.00000000E+00  0.00000000E+00  0.00000000E+00  0.00000000E+00  0.10000000E+01
  0.00000000E+00
  0.00000000E+00  0.00000000E+00  0.00000000E+00  0.00000000E+00  0.00000000E+00
  0.10000000E+01
*p functions
  7  5
  0.41711846E+02  0.60260150E+01  0.27159950E+01  0.10569140E+01  0.37694100E+00
  0.74161000E-01  0.23805000E-01
  0.20912000E-01  0.00000000E+00  0.00000000E+00  0.00000000E+00  0.00000000E+00
 -0.10073290E+01  0.00000000E+00  0.00000000E+00  0.00000000E+00  0.00000000E+00
  0.00000000E+00  0.25364400E+00  0.00000000E+00  0.00000000E+00  0.00000000E+00
  0.00000000E+00  0.79264300E+00  0.00000000E+00  0.00000000E+00  0.00000000E+00
  0.00000000E+00  0.00000000E+00  0.10000000E+01  0.00000000E+00  0.00000000E+00
  0.00000000E+00  0.00000000E+00  0.00000000E+00  0.10000000E+01  0.00000000E+00
  0.00000000E+00  0.00000000E+00  0.00000000E+00  0.00000000E+00  0.10000000E+01
*d functions
  6  3
  0.16273548E+02  0.48000490E+01  0.15412930E+01  0.46818000E+00  0.12279900E+00
  0.40000000E-01
  0.35559000E-01  0.00000000E+00  0.00000000E+00
  0.16935600E+00  0.00000000E+00  0.00000000E+00
  0.42044600E+00  0.00000000E+00  0.00000000E+00
  0.61731400E+00  0.00000000E+00  0.00000000E+00
  0.00000000E+00  0.10000000E+01  0.00000000E+00
  0.00000000E+00  0.00000000E+00  0.10000000E+01
*f functions
  1  1
  0.27000000E+00
  0.10000000E+01
PP,sc,10,3;
1; ! F POTENTIAL
2, 1.00000000,.000000000;
2; ! S-F POTENTIAL
2, 11.5000000,138.538152;
2, 5.18400000,14.8340420;
2; ! P-F POTENTIAL
2, 10.9300000,82.4586140;
2, 4.58100000,8.56520600;
2; ! D-F POTENTIAL
2, 13.4700000,-16.129862;
2, 4.37500000,-.53469000;
*
Spectral
End of Spectral
*
***************************************
*  ECP10MDF
/Ti.ECP.Stoll.8s7p6d1f.6s5p3d1f.12e-MDF.
Ref 7: M. Dolg, U. Wedig, H. Stoll, H. Preuss, J. Chem. Phys. 86, 866 (1987). *
 *Challenge of Transition Metals ,A. Veillard, Reidel, Dordrecht (1986), p.79.
    12.0000  3
*s functions
  8  6
  0.10780365E+02  0.97170130E+01  0.45077550E+01  0.12467080E+01  0.50870700E+00
  0.73438000E-01  0.30048000E-01  0.10000000E-01
  0.17838920E+01  0.00000000E+00  0.00000000E+00  0.00000000E+00  0.00000000E+00
  0.00000000E+00
 -0.20006890E+01  0.00000000E+00  0.00000000E+00  0.00000000E+00  0.00000000E+00
  0.00000000E+00
 -0.75633300E+00  0.00000000E+00  0.00000000E+00  0.00000000E+00  0.00000000E+00
  0.00000000E+00
  0.00000000E+00  0.10000000E+01  0.00000000E+00  0.00000000E+00  0.00000000E+00
  0.00000000E+00
  0.00000000E+00  0.00000000E+00  0.10000000E+01  0.00000000E+00  0.00000000E+00
  0.00000000E+00
  0.00000000E+00  0.00000000E+00  0.00000000E+00  0.10000000E+01  0.00000000E+00
  0.00000000E+00
  0.00000000E+00  0.00000000E+00  0.00000000E+00  0.00000000E+00  0.10000000E+01
  0.00000000E+00
  0.00000000E+00  0.00000000E+00  0.00000000E+00  0.00000000E+00  0.00000000E+00
  0.10000000E+01
*p functions
  7  5
  0.17566381E+02  0.77058440E+01  0.33291380E+01  0.13081040E+01  0.45448200E+00
  0.71772000E-01  0.23784000E-01
  0.88601000E-01  0.00000000E+00  0.00000000E+00  0.00000000E+00  0.00000000E+00
 -0.10707460E+01  0.00000000E+00  0.00000000E+00  0.00000000E+00  0.00000000E+00
  0.00000000E+00  0.20010900E+00  0.00000000E+00  0.00000000E+00  0.00000000E+00
  0.00000000E+00  0.83798600E+00  0.00000000E+00  0.00000000E+00  0.00000000E+00
  0.00000000E+00  0.00000000E+00  0.10000000E+01  0.00000000E+00  0.00000000E+00
  0.00000000E+00  0.00000000E+00  0.00000000E+00  0.10000000E+01  0.00000000E+00
  0.00000000E+00  0.00000000E+00  0.00000000E+00  0.00000000E+00  0.10000000E+01
*d functions
  6  3
  0.19519194E+02  0.58646130E+01  0.19280380E+01  0.60656300E+00  0.16396100E+00
  0.50000000E-01
  0.35814000E-01  0.00000000E+00  0.00000000E+00
  0.17237300E+00  0.00000000E+00  0.00000000E+00
  0.42513600E+00  0.00000000E+00  0.00000000E+00
  0.60259500E+00  0.00000000E+00  0.00000000E+00
  0.00000000E+00  0.10000000E+01  0.00000000E+00
  0.00000000E+00  0.00000000E+00  0.10000000E+01
*f functions
  1  1
  0.50000000E+00
  0.10000000E+01
PP,ti,10,3;
1; ! F POTENTIAL
2, 1.00000000,.000000000;
2; ! S-F POTENTIAL
2, 13.0100000,158.241593;
2, 5.86200000,17.5118240;
2; ! P-F POTENTIAL
2, 12.4600000,95.2351270;
2, 5.21700000,10.0478560;
2; ! D-F POTENTIAL
2, 15.3500000,-17.568861;
2, 4.98000000,-.58725600;
*
Spectral
End of Spectral
*
***************************************
*  ECP10MDF
/V.ECP.Stoll.8s7p6d1f.6s5p3d1f.13e-MDF.
Ref 7: M. Dolg, U. Wedig, H. Stoll, H. Preuss, J. Chem. Phys. 86, 866 (1987). *
 *Challenge of Transition Metals ,A. Veillard, Reidel, Dordrecht (1986), p.79.
    13.0000   3
*s functions
  8  6
  0.12843208E+02  0.11375753E+02  0.54069740E+01  0.14659270E+01  0.59808000E+00
  0.88790000E-01  0.35318000E-01  0.10000000E-01
  0.11406430E+01  0.00000000E+00  0.00000000E+00  0.00000000E+00  0.00000000E+00
  0.00000000E+00
 -0.12188030E+01  0.00000000E+00  0.00000000E+00  0.00000000E+00  0.00000000E+00
  0.00000000E+00
 -0.89290300E+00  0.00000000E+00  0.00000000E+00  0.00000000E+00  0.00000000E+00
  0.00000000E+00
  0.00000000E+00  0.10000000E+01  0.00000000E+00  0.00000000E+00  0.00000000E+00
  0.00000000E+00
  0.00000000E+00  0.00000000E+00  0.10000000E+01  0.00000000E+00  0.00000000E+00
  0.00000000E+00
  0.00000000E+00  0.00000000E+00  0.00000000E+00  0.10000000E+01  0.00000000E+00
  0.00000000E+00
  0.00000000E+00  0.00000000E+00  0.00000000E+00  0.00000000E+00  0.10000000E+01
  0.00000000E+00
  0.00000000E+00  0.00000000E+00  0.00000000E+00  0.00000000E+00  0.00000000E+00
  0.10000000E+01
*p functions
  7  5
  0.31889868E+02  0.82371780E+01  0.43283730E+01  0.15405260E+01  0.52808100E+00
  0.89962000E-01  0.26393000E-01
  0.39407000E-01  0.00000000E+00  0.00000000E+00  0.00000000E+00  0.00000000E+00
 -0.10226030E+01  0.00000000E+00  0.00000000E+00  0.00000000E+00  0.00000000E+00
  0.00000000E+00  0.19275600E+00  0.00000000E+00  0.00000000E+00  0.00000000E+00
  0.00000000E+00  0.85116800E+00  0.00000000E+00  0.00000000E+00  0.00000000E+00
  0.00000000E+00  0.00000000E+00  0.10000000E+01  0.00000000E+00  0.00000000E+00
  0.00000000E+00  0.00000000E+00  0.00000000E+00  0.10000000E+01  0.00000000E+00
  0.00000000E+00  0.00000000E+00  0.00000000E+00  0.00000000E+00  0.10000000E+01
*d functions
  6  3
  0.22680433E+02  0.68613120E+01  0.22754450E+01  0.73192200E+00  0.20074600E+00
  0.60000000E-01
  0.36293000E-01  0.00000000E+00  0.00000000E+00
  0.17730100E+00  0.00000000E+00  0.00000000E+00
  0.43042900E+00  0.00000000E+00  0.00000000E+00
  0.58930300E+00  0.00000000E+00  0.00000000E+00
  0.00000000E+00  0.10000000E+01  0.00000000E+00
  0.00000000E+00  0.00000000E+00  0.10000000E+01
*f functions
  1  1
  0.77000000E+00
  0.10000000E+01
PP,v ,10,3;
1; ! F POTENTIAL
2, 1.00000000,.000000000;
2; ! S-F POTENTIAL
2, 14.4900000,178.447971;
2, 6.52400000,19.8313750;
2; ! P-F POTENTIAL
2, 14.3000000,109.529763;
2, 6.02100000,12.5703100;
2; ! D-F POTENTIAL
2, 17.4800000,-19.219657;
2, 5.70900000,-.64277500;
*
Spectral
End of Spectral
*
***************************************
*  ECP10MDF
/Cr.ECP.Stoll.8s7p6d1f.6s5p3d1f.14e-MDF.
Ref 7: M. Dolg, U. Wedig, H. Stoll, H. Preuss, J. Chem. Phys. 86, 866 (1987). *
 *Challenge of Transition Metals ,A. Veillard, Reidel, Dordrecht (1986), p.79.
    14.0000   2
*s functions
  8  6
  0.14053450E+02  0.11735218E+02  0.59049150E+01  0.16346650E+01  0.66293100E+00
  0.97800000E-01  0.37705000E-01  0.10000000E-01
  0.88562400E+00  0.00000000E+00  0.00000000E+00  0.00000000E+00  0.00000000E+00
  0.00000000E+00
 -0.10301320E+01  0.00000000E+00  0.00000000E+00  0.00000000E+00  0.00000000E+00
  0.00000000E+00
 -0.82672900E+00  0.00000000E+00  0.00000000E+00  0.00000000E+00  0.00000000E+00
  0.00000000E+00
  0.00000000E+00  0.10000000E+01  0.00000000E+00  0.00000000E+00  0.00000000E+00
  0.00000000E+00
  0.00000000E+00  0.00000000E+00  0.10000000E+01  0.00000000E+00  0.00000000E+00
  0.00000000E+00
  0.00000000E+00  0.00000000E+00  0.00000000E+00  0.10000000E+01  0.00000000E+00
  0.00000000E+00
  0.00000000E+00  0.00000000E+00  0.00000000E+00  0.00000000E+00  0.10000000E+01
  0.00000000E+00
  0.00000000E+00  0.00000000E+00  0.00000000E+00  0.00000000E+00  0.00000000E+00
  0.10000000E+01
*p functions
  7  5
  0.51317664E+02  0.93214980E+01  0.37411210E+01  0.15102140E+01  0.53795600E+00
  0.93408000E-01  0.26645000E-01
  0.29672000E-01  0.00000000E+00  0.00000000E+00  0.00000000E+00  0.00000000E+00
 -0.10127600E+01  0.00000000E+00  0.00000000E+00  0.00000000E+00  0.00000000E+00
  0.00000000E+00  0.25774600E+00  0.00000000E+00  0.00000000E+00  0.00000000E+00
  0.00000000E+00  0.78591700E+00  0.00000000E+00  0.00000000E+00  0.00000000E+00
  0.00000000E+00  0.00000000E+00  0.10000000E+01  0.00000000E+00  0.00000000E+00
  0.00000000E+00  0.00000000E+00  0.00000000E+00  0.10000000E+01  0.00000000E+00
  0.00000000E+00  0.00000000E+00  0.00000000E+00  0.00000000E+00  0.10000000E+01
*d functions
  6  3
  0.26781439E+02  0.82316400E+01  0.27816450E+01  0.90367800E+00  0.24925800E+00
  0.70000000E-01
  0.34970000E-01  0.00000000E+00  0.00000000E+00
  0.17219500E+00  0.00000000E+00  0.00000000E+00
  0.42703200E+00  0.00000000E+00  0.00000000E+00
  0.59293900E+00  0.00000000E+00  0.00000000E+00
  0.00000000E+00  0.10000000E+01  0.00000000E+00
  0.00000000E+00  0.00000000E+00  0.10000000E+01
*f functions
  1  1
  0.16000000E+01
  0.10000000E+01
PP,cr,10,3;
1; ! F POTENTIAL
2, 1.00000000,.000000000;
2; ! S-F POTENTIAL
2, 16.3900000,201.578887;
2, 7.40200000,24.2057410;
2; ! P-F POTENTIAL
2, 16.4500000,125.022774;
2, 6.96200000,16.4790660;
2; ! D-F POTENTIAL
2, 19.9300000,-20.827421;
2, 6.59800000,-.83436800;
*
Spectral
End of Spectral
*
***************************************
*  ECP10MDF   (- f-functions)
/Cr.ECP.Stoll.8s7p6d.6s5p3d.14e-MDF.
Ref 7: M. Dolg, U. Wedig, H. Stoll, H. Preuss, J. Chem. Phys. 86, 866 (1987). *
 *Challenge of Transition Metals ,A. Veillard, Reidel, Dordrecht (1986), p.79.
    14.0000   2
*s functions
  8  6
  0.14053450E+02  0.11735218E+02  0.59049150E+01  0.16346650E+01  0.66293100E+00
  0.97800000E-01  0.37705000E-01  0.10000000E-01
  0.88562400E+00  0.00000000E+00  0.00000000E+00  0.00000000E+00  0.00000000E+00
  0.00000000E+00
 -0.10301320E+01  0.00000000E+00  0.00000000E+00  0.00000000E+00  0.00000000E+00
  0.00000000E+00
 -0.82672900E+00  0.00000000E+00  0.00000000E+00  0.00000000E+00  0.00000000E+00
  0.00000000E+00
  0.00000000E+00  0.10000000E+01  0.00000000E+00  0.00000000E+00  0.00000000E+00
  0.00000000E+00
  0.00000000E+00  0.00000000E+00  0.10000000E+01  0.00000000E+00  0.00000000E+00
  0.00000000E+00
  0.00000000E+00  0.00000000E+00  0.00000000E+00  0.10000000E+01  0.00000000E+00
  0.00000000E+00
  0.00000000E+00  0.00000000E+00  0.00000000E+00  0.00000000E+00  0.10000000E+01
  0.00000000E+00
  0.00000000E+00  0.00000000E+00  0.00000000E+00  0.00000000E+00  0.00000000E+00
  0.10000000E+01
*p functions
  7  5
  0.51317664E+02  0.93214980E+01  0.37411210E+01  0.15102140E+01  0.53795600E+00
  0.93408000E-01  0.26645000E-01
  0.29672000E-01  0.00000000E+00  0.00000000E+00  0.00000000E+00  0.00000000E+00
 -0.10127600E+01  0.00000000E+00  0.00000000E+00  0.00000000E+00  0.00000000E+00
  0.00000000E+00  0.25774600E+00  0.00000000E+00  0.00000000E+00  0.00000000E+00
  0.00000000E+00  0.78591700E+00  0.00000000E+00  0.00000000E+00  0.00000000E+00
  0.00000000E+00  0.00000000E+00  0.10000000E+01  0.00000000E+00  0.00000000E+00
  0.00000000E+00  0.00000000E+00  0.00000000E+00  0.10000000E+01  0.00000000E+00
  0.00000000E+00  0.00000000E+00  0.00000000E+00  0.00000000E+00  0.10000000E+01
*d functions
  6  3
  0.26781439E+02  0.82316400E+01  0.27816450E+01  0.90367800E+00  0.24925800E+00
  0.70000000E-01
  0.34970000E-01  0.00000000E+00  0.00000000E+00
  0.17219500E+00  0.00000000E+00  0.00000000E+00
  0.42703200E+00  0.00000000E+00  0.00000000E+00
  0.59293900E+00  0.00000000E+00  0.00000000E+00
  0.00000000E+00  0.10000000E+01  0.00000000E+00
  0.00000000E+00  0.00000000E+00  0.10000000E+01
PP,cr,10,3;
1; ! F POTENTIAL
2, 1.00000000,.000000000;
2; ! S-F POTENTIAL
2, 16.3900000,201.578887;
2, 7.40200000,24.2057410;
2; ! P-F POTENTIAL
2, 16.4500000,125.022774;
2, 6.96200000,16.4790660;
2; ! D-F POTENTIAL
2, 19.9300000,-20.827421;
2, 6.59800000,-.83436800;
*
Spectral
End of Spectral
*
***************************************
*  ECP10MDF
/Mn.ECP.Stoll.8s7p6d1f.6s5p3d1f.15e-MDF.
Ref 7: M. Dolg, U. Wedig, H. Stoll, H. Preuss, J. Chem. Phys. 86, 866 (1987). *
 *Challenge of Transition Metals ,A. Veillard, Reidel, Dordrecht (1986), p.79.
    15.0000   3
*s functions
  8  6
  0.15564001E+02  0.13286928E+02  0.61372810E+01  0.17659830E+01  0.71377400E+00
  0.98328000E-01  0.37097000E-01  0.10000000E-01
  0.10997890E+01  0.00000000E+00  0.00000000E+00  0.00000000E+00  0.00000000E+00
  0.00000000E+00
 -0.13058510E+01  0.00000000E+00  0.00000000E+00  0.00000000E+00  0.00000000E+00
  0.00000000E+00
 -0.76802400E+00  0.00000000E+00  0.00000000E+00  0.00000000E+00  0.00000000E+00
  0.00000000E+00
  0.00000000E+00  0.10000000E+01  0.00000000E+00  0.00000000E+00  0.00000000E+00
  0.00000000E+00
  0.00000000E+00  0.00000000E+00  0.10000000E+01  0.00000000E+00  0.00000000E+00
  0.00000000E+00
  0.00000000E+00  0.00000000E+00  0.00000000E+00  0.10000000E+01  0.00000000E+00
  0.00000000E+00
  0.00000000E+00  0.00000000E+00  0.00000000E+00  0.00000000E+00  0.10000000E+01
  0.00000000E+00
  0.00000000E+00  0.00000000E+00  0.00000000E+00  0.00000000E+00  0.00000000E+00
  0.10000000E+01
*p functions
  7  5
  0.27432061E+02  0.11366873E+02  0.44525400E+01  0.18534590E+01  0.64518000E+00
  0.10304400E+00  0.28296000E-01
  0.83851000E-01  0.00000000E+00  0.00000000E+00  0.00000000E+00  0.00000000E+00
 -0.10649650E+01  0.00000000E+00  0.00000000E+00  0.00000000E+00  0.00000000E+00
  0.00000000E+00  0.20265200E+00  0.00000000E+00  0.00000000E+00  0.00000000E+00
  0.00000000E+00  0.83175400E+00  0.00000000E+00  0.00000000E+00  0.00000000E+00
  0.00000000E+00  0.00000000E+00  0.10000000E+01  0.00000000E+00  0.00000000E+00
  0.00000000E+00  0.00000000E+00  0.00000000E+00  0.10000000E+01  0.00000000E+00
  0.00000000E+00  0.00000000E+00  0.00000000E+00  0.00000000E+00  0.10000000E+01
*d functions
  6  3
  0.29514223E+02  0.89628240E+01  0.30279670E+01  0.98329200E+00  0.27032500E+00
  0.70000000E-01
  0.37162000E-01  0.00000000E+00  0.00000000E+00
  0.18274500E+00  0.00000000E+00  0.00000000E+00
  0.43560700E+00  0.00000000E+00  0.00000000E+00
  0.57705300E+00  0.00000000E+00  0.00000000E+00
  0.00000000E+00  0.10000000E+01  0.00000000E+00
  0.00000000E+00  0.00000000E+00  0.10000000E+01
*f functions
  1  1
  0.18000000E+01
  0.10000000E+01
PP,mn,10,3;
1; ! F POTENTIAL
2, 1.00000000,.000000000;
2; ! S-F POTENTIAL
2, 18.5200000,226.430902;
2, 8.37300000,30.3590720;
2; ! P-F POTENTIAL
2, 18.9200000,142.154705;
2, 8.01700000,21.5365090;
2; ! D-F POTENTIAL
2, 22.7200000,-22.568119;
2, 7.64000000,-1.2058100;
*
Spectral
End of Spectral
*
***************************************
*  ECP10MDF
/Fe.ECP.Stoll.8s7p6d1f.6s5p3d1f.16-MDF.
Ref 7: M. Dolg, U. Wedig, H. Stoll, H. Preuss, J. Chem. Phys. 86, 866 (1987). *
 *Challenge of Transition Metals ,A. Veillard, Reidel, Dordrecht (1986), p.79.
    16.0000   3
*s functions
  8  6
  0.20513028E+02  0.97767920E+01  0.45735990E+01  0.19499100E+01  0.76648800E+00
  0.10079800E+00  0.37516000E-01  0.10000000E-01
  0.23471400E+00  0.00000000E+00  0.00000000E+00  0.00000000E+00  0.00000000E+00
  0.00000000E+00
 -0.87752700E+00  0.00000000E+00  0.00000000E+00  0.00000000E+00  0.00000000E+00
  0.00000000E+00
 -0.34163600E+00  0.00000000E+00  0.00000000E+00  0.00000000E+00  0.00000000E+00
  0.00000000E+00
  0.00000000E+00  0.10000000E+01  0.00000000E+00  0.00000000E+00  0.00000000E+00
  0.00000000E+00
  0.00000000E+00  0.00000000E+00  0.10000000E+01  0.00000000E+00  0.00000000E+00
  0.00000000E+00
  0.00000000E+00  0.00000000E+00  0.00000000E+00  0.10000000E+01  0.00000000E+00
  0.00000000E+00
  0.00000000E+00  0.00000000E+00  0.00000000E+00  0.00000000E+00  0.10000000E+01
  0.00000000E+00
  0.00000000E+00  0.00000000E+00  0.00000000E+00  0.00000000E+00  0.00000000E+00
  0.10000000E+01
*p functions
  7  5
  0.63125326E+02  0.11656855E+02  0.51786610E+01  0.20355320E+01  0.70881800E+00
  0.11016800E+00  0.29444000E-01
  0.27147000E-01  0.00000000E+00  0.00000000E+00  0.00000000E+00  0.00000000E+00
 -0.10118750E+01  0.00000000E+00  0.00000000E+00  0.00000000E+00  0.00000000E+00
  0.00000000E+00  0.21516800E+00  0.00000000E+00  0.00000000E+00  0.00000000E+00
  0.00000000E+00  0.82509500E+00  0.00000000E+00  0.00000000E+00  0.00000000E+00
  0.00000000E+00  0.00000000E+00  0.10000000E+01  0.00000000E+00  0.00000000E+00
  0.00000000E+00  0.00000000E+00  0.00000000E+00  0.10000000E+01  0.00000000E+00
  0.00000000E+00  0.00000000E+00  0.00000000E+00  0.00000000E+00  0.10000000E+01
*d functions
  6  3
  0.33666790E+02  0.10235695E+02  0.34664880E+01  0.11272960E+01  0.30824700E+00
  0.80000000E-01
  0.36529000E-01  0.00000000E+00  0.00000000E+00
  0.18282500E+00  0.00000000E+00  0.00000000E+00
  0.43706900E+00  0.00000000E+00  0.00000000E+00
  0.57517800E+00  0.00000000E+00  0.00000000E+00
  0.00000000E+00  0.10000000E+01  0.00000000E+00
  0.00000000E+00  0.00000000E+00  0.10000000E+01
*f functions
  1  1
  0.20000000E+01
  0.10000000E+01
PP,fe,10,3;
1; ! F POTENTIAL
2, 1.00000000,.000000000;
2; ! S-F POTENTIAL
2, 20.9300000,253.749588;
2, 9.44500000,37.9228450;
2; ! P-F POTENTIAL
2, 21.7600000,161.036812;
2, 9.17800000,27.6512980;
2; ! D-F POTENTIAL
2, 25.9000000,-24.431276;
2, 8.83500000,-1.4342510;
*
Spectral
End of Spectral
*
***************************************
*  ECP10MDF
/Co.ECP.Stoll.8s7p6d1f.6s5p3d1f.17e-MDF.
Ref 7: M. Dolg, U. Wedig, H. Stoll, H. Preuss, J. Chem. Phys. 86, 866 (1987). *
 *Challenge of Transition Metals ,A. Veillard, Reidel, Dordrecht (1986), p.79.
    17.0000   3
*s functions
  8  6
  0.20908001E+02  0.13906234E+02  0.73285430E+01  0.21363240E+01  0.85282200E+00
  0.10669200E+00  0.39346000E-01  0.10000000E-01
  0.39805300E+00  0.00000000E+00  0.00000000E+00  0.00000000E+00  0.00000000E+00
  0.00000000E+00
 -0.64905200E+00  0.00000000E+00  0.00000000E+00  0.00000000E+00  0.00000000E+00
  0.00000000E+00
 -0.72345300E+00  0.00000000E+00  0.00000000E+00  0.00000000E+00  0.00000000E+00
  0.00000000E+00
  0.00000000E+00  0.10000000E+01  0.00000000E+00  0.00000000E+00  0.00000000E+00
  0.00000000E+00
  0.00000000E+00  0.00000000E+00  0.10000000E+01  0.00000000E+00  0.00000000E+00
  0.00000000E+00
  0.00000000E+00  0.00000000E+00  0.00000000E+00  0.10000000E+01  0.00000000E+00
  0.00000000E+00
  0.00000000E+00  0.00000000E+00  0.00000000E+00  0.00000000E+00  0.10000000E+01
  0.00000000E+00
  0.00000000E+00  0.00000000E+00  0.00000000E+00  0.00000000E+00  0.00000000E+00
  0.10000000E+01
*p functions
  7  5
  0.67034443E+02  0.13262334E+02  0.56906500E+01  0.22719400E+01  0.78891100E+00
  0.11835500E+00  0.30594000E-01
  0.29370000E-01  0.00000000E+00  0.00000000E+00  0.00000000E+00  0.00000000E+00
 -0.10136260E+01  0.00000000E+00  0.00000000E+00  0.00000000E+00  0.00000000E+00
  0.00000000E+00  0.20386500E+00  0.00000000E+00  0.00000000E+00  0.00000000E+00
  0.00000000E+00  0.83364500E+00  0.00000000E+00  0.00000000E+00  0.00000000E+00
  0.00000000E+00  0.00000000E+00  0.10000000E+01  0.00000000E+00  0.00000000E+00
  0.00000000E+00  0.00000000E+00  0.00000000E+00  0.10000000E+01  0.00000000E+00
  0.00000000E+00  0.00000000E+00  0.00000000E+00  0.00000000E+00  0.10000000E+01
*d functions
  6  3
  0.36840520E+02  0.11173675E+02  0.37975640E+01  0.12392620E+01  0.33940000E+00
  0.90000000E-01
  0.38056000E-01  0.00000000E+00  0.00000000E+00
  0.18892500E+00  0.00000000E+00  0.00000000E+00
  0.44105100E+00  0.00000000E+00  0.00000000E+00
  0.56569700E+00  0.00000000E+00  0.00000000E+00
  0.00000000E+00  0.10000000E+01  0.00000000E+00
  0.00000000E+00  0.00000000E+00  0.10000000E+01
*f functions
  1  1
  0.22000000E+01
  0.10000000E+01
PP,co,10,3;
1; ! F POTENTIAL
2, 1.00000000,.000000000;
2; ! S-F POTENTIAL
2, 23.6600000,283.960566;
2, 10.6100000,47.1568460;
2; ! P-F POTENTIAL
2, 25.0400000,182.212236;
2, 10.4400000,35.2333520;
2; ! D-F POTENTIAL
2, 29.5400000,-26.475333;
2, 10.1800000,-1.8257870;
*
Spectral
End of Spectral
*
***************************************
*  ECP10MDF
/Ni.ECP.Stoll.8s7p6d1f.6s5p3d1f.18e-MDF.
Ref 7: M. Dolg, U. Wedig, H. Stoll, H. Preuss, J. Chem. Phys. 86, 866 (1987). *
 *Challenge of Transition Metals ,A. Veillard, Reidel, Dordrecht (1986), p.79.
    18.0000   3
*s functions
  8  6
  0.23457991E+02  0.14869392E+02  0.80541540E+01  0.23198240E+01  0.92346200E+00
  0.10995500E+00  0.40134000E-01  0.10000000E-01
  0.34542400E+00  0.00000000E+00  0.00000000E+00  0.00000000E+00  0.00000000E+00
  0.00000000E+00
 -0.59501200E+00  0.00000000E+00  0.00000000E+00  0.00000000E+00  0.00000000E+00
  0.00000000E+00
 -0.72484900E+00  0.00000000E+00  0.00000000E+00  0.00000000E+00  0.00000000E+00
  0.00000000E+00
  0.00000000E+00  0.10000000E+01  0.00000000E+00  0.00000000E+00  0.00000000E+00
  0.00000000E+00
  0.00000000E+00  0.00000000E+00  0.10000000E+01  0.00000000E+00  0.00000000E+00
  0.00000000E+00
  0.00000000E+00  0.00000000E+00  0.00000000E+00  0.10000000E+01  0.00000000E+00
  0.00000000E+00
  0.00000000E+00  0.00000000E+00  0.00000000E+00  0.00000000E+00  0.10000000E+01
  0.00000000E+00
  0.00000000E+00  0.00000000E+00  0.00000000E+00  0.00000000E+00  0.00000000E+00
  0.10000000E+01
*p functions
  7  5
  0.78038780E+02  0.14774440E+02  0.61513520E+01  0.24964210E+01  0.86670200E+00
  0.12649900E+00  0.31784000E-01
  0.27008000E-01  0.00000000E+00  0.00000000E+00  0.00000000E+00  0.00000000E+00
 -0.10120810E+01  0.00000000E+00  0.00000000E+00  0.00000000E+00  0.00000000E+00
  0.00000000E+00  0.20219500E+00  0.00000000E+00  0.00000000E+00  0.00000000E+00
  0.00000000E+00  0.83392000E+00  0.00000000E+00  0.00000000E+00  0.00000000E+00
  0.00000000E+00  0.00000000E+00  0.10000000E+01  0.00000000E+00  0.00000000E+00
  0.00000000E+00  0.00000000E+00  0.00000000E+00  0.10000000E+01  0.00000000E+00
  0.00000000E+00  0.00000000E+00  0.00000000E+00  0.00000000E+00  0.10000000E+01
*d functions
  6  3
  0.40789048E+02  0.12347601E+02  0.42070490E+01  0.13754130E+01  0.37614700E+00
  0.90000000E-01
  0.38425000E-01  0.00000000E+00  0.00000000E+00
  0.19149800E+00  0.00000000E+00  0.00000000E+00
  0.44307500E+00  0.00000000E+00  0.00000000E+00
  0.56121600E+00  0.00000000E+00  0.00000000E+00
  0.00000000E+00  0.10000000E+01  0.00000000E+00
  0.00000000E+00  0.00000000E+00  0.10000000E+01
*f functions
  1  1
  0.24000000E+01
  0.10000000E+01
PP,ni,10,3;
1; ! F POTENTIAL
2, 1.00000000,.000000000;
2; ! S-F POTENTIAL
2, 26.7400000,317.682272;
2, 11.8600000,58.2553910;
2; ! P-F POTENTIAL
2, 28.8000000,252.474366;
2, 11.7900000,36.0815030;
2; ! D-F POTENTIAL
2, 33.7000000,-18.522955;
2, 11.6600000,-4.5576680;
*
Spectral
End of Spectral
*
***************************************
*  ECP10MDF
/Cu.ECP.Stoll.8s7p6d.6s5p3d.19e-MDF.
Ref 7: M. Dolg, U. Wedig, H. Stoll, H. Preuss, J. Chem. Phys. 86, 866 (1987). *
 *Challenge of Transition Metals ,A. Veillard, Reidel, Dordrecht (1986), p.79.
    19.0000   2
*s functions
  8 6
  0.27696320E+02  0.13505350E+02  0.88153550E+01  0.23808050E+01  0.95261600E+00
  0.11266200E+00  0.40486000E-01  0.10000000E-01
  0.23113200E+00  0.00000000E+00  0.00000000E+00  0.00000000E+00  0.00000000E+00
  0.00000000E+00
 -0.65681100E+00  0.00000000E+00  0.00000000E+00  0.00000000E+00  0.00000000E+00
  0.00000000E+00
 -0.54587500E+00  0.00000000E+00  0.00000000E+00  0.00000000E+00  0.00000000E+00
  0.00000000E+00
  0.00000000E+00  0.10000000E+01  0.00000000E+00  0.00000000E+00  0.00000000E+00
  0.00000000E+00
  0.00000000E+00  0.00000000E+00  0.10000000E+01  0.00000000E+00  0.00000000E+00
  0.00000000E+00
  0.00000000E+00  0.00000000E+00  0.00000000E+00  0.10000000E+01  0.00000000E+00
  0.00000000E+00
  0.00000000E+00  0.00000000E+00  0.00000000E+00  0.00000000E+00  0.10000000E+01
  0.00000000E+00
  0.00000000E+00  0.00000000E+00  0.00000000E+00  0.00000000E+00  0.00000000E+00
  0.10000000E+01
*p functions
  7  5
  0.93504327E+02  0.16285464E+02  0.59942360E+01  0.25368750E+01  0.89793400E+00
  0.13172900E+00  0.30878000E-01
  0.22829000E-01  0.00000000E+00  0.00000000E+00  0.00000000E+00  0.00000000E+00
 -0.10095130E+01  0.00000000E+00  0.00000000E+00  0.00000000E+00  0.00000000E+00
  0.00000000E+00  0.24645000E+00  0.00000000E+00  0.00000000E+00  0.00000000E+00
  0.00000000E+00  0.79202400E+00  0.00000000E+00  0.00000000E+00  0.00000000E+00
  0.00000000E+00  0.00000000E+00  0.10000000E+01  0.00000000E+00  0.00000000E+00
  0.00000000E+00  0.00000000E+00  0.00000000E+00  0.10000000E+01  0.00000000E+00
  0.00000000E+00  0.00000000E+00  0.00000000E+00  0.00000000E+00  0.10000000E+01
*d functions
  6  3
  0.41225006E+02  0.12343250E+02  0.42019200E+01  0.13798250E+01  0.38345300E+00
  0.10000000E+00
  0.44694000E-01  0.00000000E+00  0.00000000E+00
  0.21210600E+00  0.00000000E+00  0.00000000E+00
  0.45342300E+00  0.00000000E+00  0.00000000E+00
  0.53346500E+00  0.00000000E+00  0.00000000E+00
  0.00000000E+00  0.10000000E+01  0.00000000E+00
  0.00000000E+00  0.00000000E+00  0.10000000E+01
PP,cu,10,3;
1; ! F POTENTIAL
2, 1.00000000,.000000000;
2; ! S-F POTENTIAL
2, 30.2200000,355.770158;
2, 13.1900000,70.8653570;
2; ! P-F POTENTIAL
2, 33.1300000,233.891976;
2, 13.2200000,53.9472990;
2; ! D-F POTENTIAL
2, 38.4200000,-31.272165;
2, 13.2600000,-2.7411040;
*
Spectral
End of Spectral
*
***************************************
*  ECP10MDF
/Zn.ECP.Stoll.8s7p6d.6s5p3d.20e-MDF.
Ref 7: M. Dolg, U. Wedig, H. Stoll, H. Preuss, J. Chem. Phys. 86, 866 (1987). *
 *Challenge of Transition Metals ,A. Veillard, Reidel, Dordrecht (1986), p.79.
    20.0000   2
*s functions
  8  6
  0.30324127E+02  0.16316682E+02  0.11408148E+02  0.25694920E+01  0.10625950E+01
  0.15155300E+00  0.52747000E-01  0.10000000E-01
  0.21914300E+00  0.00000000E+00  0.00000000E+00  0.00000000E+00  0.00000000E+00
  0.00000000E+00
 -0.23255600E+00  0.00000000E+00  0.00000000E+00  0.00000000E+00  0.00000000E+00
  0.00000000E+00
 -0.95468500E+00  0.00000000E+00  0.00000000E+00  0.00000000E+00  0.00000000E+00
  0.00000000E+00
  0.00000000E+00  0.10000000E+01  0.00000000E+00  0.00000000E+00  0.00000000E+00
  0.00000000E+00
  0.00000000E+00  0.00000000E+00  0.10000000E+01  0.00000000E+00  0.00000000E+00
  0.00000000E+00
  0.00000000E+00  0.00000000E+00  0.00000000E+00  0.10000000E+01  0.00000000E+00
  0.00000000E+00
  0.00000000E+00  0.00000000E+00  0.00000000E+00  0.00000000E+00  0.10000000E+01
  0.00000000E+00
  0.00000000E+00  0.00000000E+00  0.00000000E+00  0.00000000E+00  0.00000000E+00
  0.10000000E+01
*p functions
  7  5
  0.11182498E+03  0.19131910E+02  0.54688380E+01  0.25056750E+01  0.94186800E+00
  0.17113100E+00  0.49986000E-01
  0.23277000E-01  0.00000000E+00  0.00000000E+00  0.00000000E+00  0.00000000E+00
 -0.10095390E+01  0.00000000E+00  0.00000000E+00  0.00000000E+00  0.00000000E+00
  0.00000000E+00  0.32015100E+00  0.00000000E+00  0.00000000E+00  0.00000000E+00
  0.00000000E+00  0.71808500E+00  0.00000000E+00  0.00000000E+00  0.00000000E+00
  0.00000000E+00  0.00000000E+00  0.10000000E+01  0.00000000E+00  0.00000000E+00
  0.00000000E+00  0.00000000E+00  0.00000000E+00  0.10000000E+01  0.00000000E+00
  0.00000000E+00  0.00000000E+00  0.00000000E+00  0.00000000E+00  0.10000000E+01
*d functions
  6  3
  0.44645629E+02  0.13438377E+02  0.46820000E+01  0.16032110E+01  0.48276600E+00
  0.11000000E+00
  0.47249000E-01  0.00000000E+00  0.00000000E+00
  0.21892600E+00  0.00000000E+00  0.00000000E+00
  0.45251200E+00  0.00000000E+00  0.00000000E+00
  0.51857600E+00  0.00000000E+00  0.00000000E+00
  0.00000000E+00  0.10000000E+01  0.00000000E+00
  0.00000000E+00  0.00000000E+00  0.10000000E+01
PP,zn,10,3;
1; ! F POTENTIAL
2, 1.00000000,.000000000;
2; ! S-F POTENTIAL
2, 34.1500000,399.987282;
2, 14.5900000,85.4856550;
2; ! P-F POTENTIAL
2, 39.7800000,277.148960;
2, 14.9500000,69.0522050;
2; ! D-F POTENTIAL
2, 43.8000000,-34.149349;
2, 14.9800000,-3.2918310;
*
Spectral
End of Spectral
*
***************************************
*    Stuttgart RLC ECP  (pnl website only)
/Zn.ECP.Stoll.4s2p.3s2p.2e-MWB.
G. Igel-Mann
Thesis, University of Stuttgart, Germany, 1987.
    2.00000  1
*s functions
  4  3
  0.15727550E+01  0.11989050E+01  0.14885600E+00  0.51016000E-01
  0.31386200E+00  0.00000000E+00  0.00000000E+00
 -0.54180100E+00  0.00000000E+00  0.00000000E+00
  0.00000000E+00  0.10000000E+01  0.00000000E+00
  0.00000000E+00  0.00000000E+00  0.10000000E+01
*p functions
  2  2
  0.13627000E+00  0.41500000E-01
  0.10000000E+01  0.00000000E+00
  0.00000000E+00  0.10000000E+01
PP,zn,28,3;
1; ! F POTENTIAL
2, 1.00000000,.000000000;
2; ! S-F POTENTIAL
2, 1.50000000,14.9368000;
2,0.750000000,-2.6266000;
2; ! P-F POTENTIAL
2, 1.50000000,11.4329000;
2,0.750000000,-1.4939000;
2; ! D-F POTENTIAL
2,0.750000000,1.16900000;
2,0.375000000,.370700000;
*
Spectral
End of Spectral
*
***************************************
*   ECP28MWB
/Ga.ECP.Stoll.4s4p.2s2p.3e-MWB.
Ref 4: A. Bergner, M. Dolg, W. Kuechle, H. Stoll, H. Preuss,
 * Mol. Phys. 80, 1431 (1993).
    3.00000   1
*s functions
  4  2
  0.34847750E+01  0.16858350E+01  0.17854200E+00  0.67814000E-01
  0.11439400E+00  0.00000000E+00
 -0.36013100E+00  0.00000000E+00
  0.69379900E+00  0.00000000E+00
  0.00000000E+00  0.10000000E+01
*p functions
  4  2
  0.12832310E+01  0.47616300E+00  0.15562100E+00  0.54294000E-01
  0.10283400E+00  0.00000000E+00
 -0.14088600E+00  0.00000000E+00
 -0.47731500E+00  0.00000000E+00
  0.00000000E+00  0.10000000E+01
PP,ga,28,4;
1; ! G POTENTIAL
2, 1.00000000,.000000000;
1; ! S-G POTENTIAL
2, 5.21596000,203.853972;
1; ! P-G POTENTIAL
2, 4.30890400,156.103390;
1; ! D-G POTENTIAL
2,0.496357000,1.03164700;
1; ! F-G POTENTIAL
2, 1.71517000,-10.673735;
*
Spectral
End of Spectral
*
***************************************
*   ECP28MWB
/Ge.ECP.Stoll.4s4p.2s2p.4e-MWB.
Ref 4: A. Bergner, M. Dolg, W. Kuechle, H. Stoll, H. Preuss,
 * Mol. Phys. 80, 1431 (1993).
    4.00000   1
*s functions
  4  2
  0.32312530E+01  0.19475450E+01  0.23232000E+00  0.86669000E-01
  0.22218000E+00  0.00000000E+00
 -0.50661600E+00  0.00000000E+00
  0.70884500E+00  0.00000000E+00
  0.00000000E+00  0.10000000E+01
*p functions
  4  2
  0.12278050E+01  0.75685600E+00  0.20434700E+00  0.67792000E-01
  0.22395000E+00  0.00000000E+00
 -0.22913400E+00  0.00000000E+00
 -0.57641400E+00  0.00000000E+00
  0.00000000E+00  0.10000000E+01
PP,ge,28,4;
1; ! G POTENTIAL
2, 1.00000000,.000000000;
1; ! S-G POTENTIAL
2, 4.81540900,149.246579;
1; ! P-G POTENTIAL
2, 4.16951500,132.844335;
1; ! D-G POTENTIAL
2,0.591958000,1.34615400;
1; ! F-G POTENTIAL
2, 1.79177000,-7.0442230;
*
Spectral
End of Spectral
*
***************************************
*   ECP28MWB
/As.ECP.Stoll.4s4p.2s2p.5e-MWB.
Ref 4: A. Bergner, M. Dolg, W. Kuechle, H. Stoll, H. Preuss,
 * Mol. Phys. 80, 1431 (1993).
    5.00000   1
*s functions
  4  2
  0.34314740E+01  0.18968660E+01  0.29444900E+00  0.11189600E+00
  0.14816600E+00  0.00000000E+00
 -0.44989000E+00  0.00000000E+00
  0.69568200E+00  0.00000000E+00
  0.00000000E+00  0.10000000E+01
*p functions
  4  2
  0.12964470E+01  0.94997100E+00  0.25442100E+00  0.87593000E-01
 -0.36995400E+00  0.00000000E+00
  0.37321400E+00  0.00000000E+00
  0.60030400E+00  0.00000000E+00
  0.00000000E+00  0.10000000E+01
PP,as,28,4;
1; ! G POTENTIAL
2, 1.00000000,.000000000;
1; ! S-G POTENTIAL
2, 3.61262500,53.9656200;
1; ! P-G POTENTIAL
2, 3.90792600,88.9490880;
1; ! D-G POTENTIAL
2, 1.92646700,22.4202880;
1; ! F-G POTENTIAL
2, 1.77343400,-4.7048150;
*
Spectral
End of Spectral
*
***************************************
*   ECP28MWB
/Se.ECP.Stoll.4s5p.2s3p.6e-MWB.
Ref 4: A. Bergner, M. Dolg, W. Kuechle, H. Stoll, H. Preuss,
 * Mol. Phys. 80, 1431 (1993).
    6.00000   1
*s functions
  4  2
  0.35881800E+01  0.22397110E+01  0.34377300E+00  0.13139900E+00
  0.24963000E+00  0.00000000E+00
 -0.58146000E+00  0.00000000E+00
  0.72893800E+00  0.00000000E+00
  0.00000000E+00  0.10000000E+01
*p functions
  5  3
  0.15094270E+01  0.87510600E+00  0.29082600E+00  0.10022100E+00  0.32516000E-01
  0.19527100E+00  0.00000000E+00  0.00000000E+00
 -0.25391500E+00  0.00000000E+00  0.00000000E+00
 -0.59048700E+00  0.00000000E+00  0.00000000E+00
  0.00000000E+00  0.10000000E+01  0.00000000E+00
  0.00000000E+00  0.00000000E+00  0.10000000E+01
PP,se,28,4;
1; ! G POTENTIAL
2, 1.00000000,.000000000;
1; ! S-G POTENTIAL
2, 4.23705700,79.6633450;
1; ! P-G POTENTIAL
2, 2.91033400,31.5609930;
1; ! D-G POTENTIAL
2, 2.33570100,30.8046100;
1; ! F-G POTENTIAL
2, 2.25463900,-6.5468750;
*
Spectral
End of Spectral
*
***************************************
*   ECP28MWB
/Br.ECP.Stoll.4s5p.2s3p.7e-MWB.
Ref 4: A. Bergner, M. Dolg, W. Kuechle, H. Stoll, H. Preuss,
 * Mol. Phys. 80, 1431 (1993).
    7.00000   1
*s functions
  4  2
  0.47218810E+01  0.22575550E+01  0.38960800E+00  0.14713400E+00
  0.10729700E+00  0.00000000E+00
 -0.43380200E+00  0.00000000E+00
  0.77204300E+00  0.00000000E+00
  0.00000000E+00  0.10000000E+01
*p functions
  5  3
  0.18969420E+01  0.91089900E+00  0.31685500E+00  0.10950300E+00  0.36097000E-01
 -0.17939500E+00  0.00000000E+00  0.00000000E+00
  0.26372900E+00  0.00000000E+00  0.00000000E+00
  0.60695200E+00  0.00000000E+00  0.00000000E+00
  0.00000000E+00  0.10000000E+01  0.00000000E+00
  0.00000000E+00  0.00000000E+00  0.10000000E+01
PP,br,28,4;
1; ! G POTENTIAL
2, 1.00000000,.000000000;
2; ! S-G POTENTIAL
2, 5.02180000,61.5137210;
2, 2.51090000,9.02149300;
2; ! P-G POTENTIAL
2, 4.28140000,53.8758640;
2, 2.14070000,4.62940200;
2; ! D-G POTENTIAL
2, 2.88000000,20.8496770;
2, 1.44000000,2.96544400;
1; ! F-G POTENTIAL
2, 2.72070000,-8.1614930;
*
Spectral
End of Spectral
*
***************************************
*   ECP28MWB
/Kr.ECP.Stoll.6s6p3d1f.4s4p3d1f.8e-MWB.
Ref 1: P. Fuentealba, H. Preuss, H. Stoll, L. v. Szentpaly,
 * Chem. Phys. Lett. 89, 418 (1982).
    8.00000   3
*s functions
  6  4
  0.35402961E+02  0.15665089E+02  0.62477110E+01  0.23942460E+01  0.45348900E+00
  0.17215800E+00
  0.20495000E-01  0.00000000E+00  0.00000000E+00  0.00000000E+00
 -0.99188000E-01  0.00000000E+00  0.00000000E+00  0.00000000E+00
  0.10720510E+01  0.00000000E+00  0.00000000E+00  0.00000000E+00
  0.00000000E+00  0.10000000E+01  0.00000000E+00  0.00000000E+00
  0.00000000E+00  0.00000000E+00  0.10000000E+01  0.00000000E+00
  0.00000000E+00  0.00000000E+00  0.00000000E+00  0.10000000E+01
*p functions
  6  4
  0.23029085E+02  0.95030920E+01  0.28424610E+01  0.68929300E+00  0.28513600E+00
  0.10878200E+00
  0.56250000E-02  0.00000000E+00  0.00000000E+00  0.00000000E+00
 -0.75051000E-01  0.00000000E+00  0.00000000E+00  0.00000000E+00
  0.10456890E+01  0.00000000E+00  0.00000000E+00  0.00000000E+00
  0.00000000E+00  0.10000000E+01  0.00000000E+00  0.00000000E+00
  0.00000000E+00  0.00000000E+00  0.10000000E+01  0.00000000E+00
  0.00000000E+00  0.00000000E+00  0.00000000E+00  0.10000000E+01
*d functions
  3  3
  0.73790000E+00  0.32250000E+00  0.14090000E+00
  0.10000000E+01  0.00000000E+00  0.00000000E+00
  0.00000000E+00  0.10000000E+01  0.00000000E+00
  0.00000000E+00  0.00000000E+00  0.10000000E+01
*f functions
  1  1
  0.70520000E+00
  0.10000000E+01
PP,kr,28,5;
1; ! H POTENTIAL
2, 1.00000000,.000000000;
2; ! S-H POTENTIAL
2, 5.87771800,73.9156939;
2, 3.08462200,16.1682508;
2; ! P-H POTENTIAL
2, 5.16411000,58.5176910;
2, 2.35830200,8.25910073;
2; ! D-H POTENTIAL
2, 3.21536200,33.4582278;
2, 1.28500800,.677253310;
2; ! F-H POTENTIAL
2, 4.08286900,-15.158699;
2, 1.19396000,-.17408825;
1; ! G-H POTENTIAL
2, 3.18077500,-6.8331588;
*
Spectral
End of Spectral
*
***************************************
*   ECP28MWB
/Rb.ECP.Stoll.7s6p.5s4p.9e-MWB.
-Basissatz fuer PP. von A.Bergner, Arbeitsbericht 1990
 ?????
    9.00000   1
*s functions
  7  5
  0.47274610E+01  0.29308250E+01  0.60184900E+00  0.46624400E+00  0.24646300E+00
  0.53379000E-01  0.21018000E-01
  0.28132900E+00  0.00000000E+00  0.00000000E+00  0.00000000E+00  0.00000000E+00
 -0.67489200E+00  0.00000000E+00  0.00000000E+00  0.00000000E+00  0.00000000E+00
  0.45877900E+00  0.00000000E+00  0.00000000E+00  0.00000000E+00  0.00000000E+00
  0.00000000E+00  0.10000000E+01  0.00000000E+00  0.00000000E+00  0.00000000E+00
  0.00000000E+00  0.00000000E+00  0.10000000E+01  0.00000000E+00  0.00000000E+00
  0.00000000E+00  0.00000000E+00  0.00000000E+00  0.10000000E+01  0.00000000E+00
  0.00000000E+00  0.00000000E+00  0.00000000E+00  0.00000000E+00  0.10000000E+01
*p functions
  6  4
  0.56084700E+01  0.34527270E+01  0.75437400E+00  0.32797400E+00  0.14179700E+00
  0.20506000E-01
  0.49805000E-01  0.00000000E+00  0.00000000E+00  0.00000000E+00
 -0.16644100E+00  0.00000000E+00  0.00000000E+00  0.00000000E+00
  0.43483400E+00  0.00000000E+00  0.00000000E+00  0.00000000E+00
  0.00000000E+00  0.10000000E+01  0.00000000E+00  0.00000000E+00
  0.00000000E+00  0.00000000E+00  0.10000000E+01  0.00000000E+00
  0.00000000E+00  0.00000000E+00  0.00000000E+00  0.10000000E+01
PP,rb,28,4;
1; ! G POTENTIAL
2, 1.00000000,.000000000;
2; ! S-G POTENTIAL
2, 5.03655181,89.5001982;
2, 1.97084963,.493761980;
2; ! P-G POTENTIAL
2, 4.25834119,58.5689749;
2, 1.47070961,.431791080;
2; ! D-G POTENTIAL
2, 3.02312774,26.2248981;
2,0.650383460,.962839500;
1; ! F-G POTENTIAL
2, 3.84311471,-12.316901;
*
Spectral
End of Spectral
*
***************************************
*   ECP28MWB
/Sr.ECP.Stoll.6s6p5d.4s4p2d.10e-MWB.
Ref 6: M. Kaupp, P. v. R. Schleyer, H. Stoll, H. Preuss,
 * J. Chem. Phys. 94, 1360 (1991).
   10.00000   2
*s functions
  6  4
  0.58791570E+01  0.30924820E+01  0.64466700E+00  0.29887600E+00  0.57276000E-01
  0.23870000E-01
  0.19670900E+00  0.00000000E+00  0.00000000E+00  0.00000000E+00
 -0.62589800E+00  0.00000000E+00  0.00000000E+00  0.00000000E+00
  0.73572300E+00  0.00000000E+00  0.00000000E+00  0.00000000E+00
  0.00000000E+00  0.10000000E+01  0.00000000E+00  0.00000000E+00
  0.00000000E+00  0.00000000E+00  0.10000000E+01  0.00000000E+00
  0.00000000E+00  0.00000000E+00  0.00000000E+00  0.10000000E+01
*p functions
  6  4
  0.24324720E+01  0.16642340E+01  0.56998900E+00  0.22071800E+00  0.67629000E-01
  0.26727000E-01
 -0.37489900E+00  0.00000000E+00  0.00000000E+00  0.00000000E+00
  0.38761500E+00  0.00000000E+00  0.00000000E+00  0.00000000E+00
  0.65583800E+00  0.00000000E+00  0.00000000E+00  0.00000000E+00
  0.00000000E+00  0.10000000E+01  0.00000000E+00  0.00000000E+00
  0.00000000E+00  0.00000000E+00  0.10000000E+01  0.00000000E+00
  0.00000000E+00  0.00000000E+00  0.00000000E+00  0.10000000E+01
*d functions
  5  2
  0.36180810E+01  0.99665600E+00  0.39073500E+00  0.12277000E+00  0.36655000E-01
 -0.75010000E-02  0.00000000E+00
  0.10809800E+00  0.00000000E+00
  0.27854000E+00  0.00000000E+00
  0.00000000E+00  0.47731800E+00
  0.00000000E+00  0.44818300E+00
PP,sr,28,4;
1; ! G POTENTIAL
2, 1.00000000,.000000000;
2; ! S-G POTENTIAL
2, 7.40007400,135.479430;
2, 3.60637900,17.5344630;
2; ! P-G POTENTIAL
2, 6.48486800,88.3597090;
2, 3.28805300,15.3943720;
2; ! D-G POTENTIAL
2, 4.62284100,29.8889870;
2, 2.24690400,6.65941400;
1; ! F-G POTENTIAL
2, 4.63397500,-15.805992;
*
Spectral
End of Spectral
*
***************************************
*   ECP28MWB
/Y.ECP.Stoll.8s7p6d.6s5p3d.11e-MWB.
Ref 10: D. Andrae, U. Haeussermann, M. Dolg, H. Stoll, H. Preuss,
 * Theor. Chim. Acta 77, 123 (1990).
    11.0000   2
*s functions
  8  6
  0.51329580E+01  0.42401920E+01  0.12982800E+01  0.83211300E+00  0.34990500E+00
  0.66551000E-01  0.28659000E-01  0.10000000E-01
 -0.13875107E+01  0.00000000E+00  0.00000000E+00  0.00000000E+00  0.00000000E+00
  0.00000000E+00
  0.19445128E+01  0.00000000E+00  0.00000000E+00  0.00000000E+00  0.00000000E+00
  0.00000000E+00
  0.44164340E+00  0.00000000E+00  0.00000000E+00  0.00000000E+00  0.00000000E+00
  0.00000000E+00
  0.00000000E+00  0.10000000E+01  0.00000000E+00  0.00000000E+00  0.00000000E+00
  0.00000000E+00
  0.00000000E+00  0.00000000E+00  0.10000000E+01  0.00000000E+00  0.00000000E+00
  0.00000000E+00
  0.00000000E+00  0.00000000E+00  0.00000000E+00  0.10000000E+01  0.00000000E+00
  0.00000000E+00
  0.00000000E+00  0.00000000E+00  0.00000000E+00  0.00000000E+00  0.10000000E+01
  0.00000000E+00
  0.00000000E+00  0.00000000E+00  0.00000000E+00  0.00000000E+00  0.00000000E+00
  0.10000000E+01
*p functions
  7  5
  0.27279200E+01  0.19790500E+01  0.87347600E+00  0.44106700E+00  0.18381500E+00
  0.60567000E-01  0.22236000E-01
 -0.35841846E+01  0.00000000E+00  0.00000000E+00  0.00000000E+00  0.00000000E+00
  0.30212057E+01  0.00000000E+00  0.00000000E+00  0.00000000E+00  0.00000000E+00
  0.00000000E+00  0.46385860E+00  0.00000000E+00  0.00000000E+00  0.00000000E+00
  0.00000000E+00  0.57085540E+00  0.00000000E+00  0.00000000E+00  0.00000000E+00
  0.00000000E+00  0.00000000E+00  0.10000000E+01  0.00000000E+00  0.00000000E+00
  0.00000000E+00  0.00000000E+00  0.00000000E+00  0.10000000E+01  0.00000000E+00
  0.00000000E+00  0.00000000E+00  0.00000000E+00  0.00000000E+00  0.10000000E+01
*d functions
  6  3
  0.29007090E+01  0.20997920E+01  0.61825200E+00  0.20018400E+00  0.61189000E-01
  0.20000000E-01
 -0.83820500E-01  0.00000000E+00  0.00000000E+00
  0.15258700E+00  0.00000000E+00  0.00000000E+00
  0.47926810E+00  0.00000000E+00  0.00000000E+00
  0.60075040E+00  0.00000000E+00  0.00000000E+00
  0.00000000E+00  0.10000000E+01  0.00000000E+00
  0.00000000E+00  0.00000000E+00  0.10000000E+01
PP,y ,28,4;
1; ! G POTENTIAL
2, 1.00000000,.000000000;
2; ! S-G POTENTIAL
2, 7.48804900,135.153844;
2, 3.74402500,15.5524410;
2; ! P-G POTENTIAL
2, 6.44537700,87.7849920;
2, 3.22268900,11.5640660;
2; ! D-G POTENTIAL
2, 4.65844700,29.7010010;
2, 2.32922400,5.53996800;
2; ! F-G POTENTIAL
2, 6.58421200,-19.122198;
2, 3.29210600,-2.4363750;
*
Spectral
End of Spectral
*
***************************************
*   ECP28MWB
/Zr.ECP.Stoll.8s7p6d.6s5p3d.12e-MWB.
Ref 10: D. Andrae, U. Haeussermann, M. Dolg, H. Stoll, H. Preuss,
 * Theor. Chim. Acta 77, 123 (1990).
    12.0000   2
*s functions
  8  6
  0.58737890E+01  0.42872700E+01  0.14641370E+01  0.83124500E+00  0.36233500E+00
  0.79357000E-01  0.33920000E-01  0.11000000E-01
 -0.97366300E+00  0.00000000E+00  0.00000000E+00  0.00000000E+00  0.00000000E+00
  0.00000000E+00
  0.17091822E+01  0.00000000E+00  0.00000000E+00  0.00000000E+00  0.00000000E+00
  0.00000000E+00
  0.24383100E+00  0.00000000E+00  0.00000000E+00  0.00000000E+00  0.00000000E+00
  0.00000000E+00
  0.00000000E+00  0.10000000E+01  0.00000000E+00  0.00000000E+00  0.00000000E+00
  0.00000000E+00
  0.00000000E+00  0.00000000E+00  0.10000000E+01  0.00000000E+00  0.00000000E+00
  0.00000000E+00
  0.00000000E+00  0.00000000E+00  0.00000000E+00  0.10000000E+01  0.00000000E+00
  0.00000000E+00
  0.00000000E+00  0.00000000E+00  0.00000000E+00  0.00000000E+00  0.10000000E+01
  0.00000000E+00
  0.00000000E+00  0.00000000E+00  0.00000000E+00  0.00000000E+00  0.00000000E+00
  0.10000000E+01
*p functions
  7  5
  0.28742240E+01  0.21199010E+01  0.85136400E+00  0.43729200E+00  0.20290400E+00
  0.63259000E-01  0.22523000E-01
 -0.42181013E+01  0.00000000E+00  0.00000000E+00  0.00000000E+00  0.00000000E+00
  0.40479431E+01  0.00000000E+00  0.00000000E+00  0.00000000E+00  0.00000000E+00
  0.00000000E+00  0.57094510E+00  0.00000000E+00  0.00000000E+00  0.00000000E+00
  0.00000000E+00  0.46210800E+00  0.00000000E+00  0.00000000E+00  0.00000000E+00
  0.00000000E+00  0.00000000E+00  0.10000000E+01  0.00000000E+00  0.00000000E+00
  0.00000000E+00  0.00000000E+00  0.00000000E+00  0.10000000E+01  0.00000000E+00
  0.00000000E+00  0.00000000E+00  0.00000000E+00  0.00000000E+00  0.10000000E+01
*d functions
  6  3
  0.25801370E+01  0.18553960E+01  0.68075400E+00  0.25669100E+00  0.89400000E-01
  0.30000000E-01
 -0.93213100E-01  0.00000000E+00  0.00000000E+00
  0.22135700E+00  0.00000000E+00  0.00000000E+00
  0.46844270E+00  0.00000000E+00  0.00000000E+00
  0.53919500E+00  0.00000000E+00  0.00000000E+00
  0.00000000E+00  0.10000000E+01  0.00000000E+00
  0.00000000E+00  0.00000000E+00  0.10000000E+01
PP,zr,28,4;
1; ! G POTENTIAL
2, 1.00000000,.000000000;
2; ! S-G POTENTIAL
2, 8.20000000,150.267591;
2, 4.08972800,18.9762160;
2; ! P-G POTENTIAL
2, 7.11000000,99.6221240;
2, 3.59679800,14.1687330;
2; ! D-G POTENTIAL
2, 5.35000000,35.0451240;
2, 2.49182100,6.11125900;
2; ! F-G POTENTIAL
2, 7.54000000,-21.093776;
2, 3.77000000,-3.0806940;
*
Spectral
End of Spectral
*
***************************************
*   ECP28MWB
/Nb.ECP.Stoll.8s7p6d.6s5p3d.13e-MWB.
Ref 10: D. Andrae, U. Haeussermann, M. Dolg, H. Stoll, H. Preuss,
 * Theor. Chim. Acta 77, 123 (1990).
    13.0000   2
*s functions
  8  6
  0.65663010E+01  0.45864380E+01  0.37537700E+01  0.88987100E+00  0.40713800E+00
  0.94271000E-01  0.39879000E-01  0.11000000E-01
 -0.85826540E+00  0.00000000E+00  0.00000000E+00  0.00000000E+00  0.00000000E+00
  0.00000000E+00
  0.13041672E+01  0.00000000E+00  0.00000000E+00  0.00000000E+00  0.00000000E+00
  0.00000000E+00
  0.50690430E+00  0.00000000E+00  0.00000000E+00  0.00000000E+00  0.00000000E+00
  0.00000000E+00
  0.00000000E+00  0.10000000E+01  0.00000000E+00  0.00000000E+00  0.00000000E+00
  0.00000000E+00
  0.00000000E+00  0.00000000E+00  0.10000000E+01  0.00000000E+00  0.00000000E+00
  0.00000000E+00
  0.00000000E+00  0.00000000E+00  0.00000000E+00  0.10000000E+01  0.00000000E+00
  0.00000000E+00
  0.00000000E+00  0.00000000E+00  0.00000000E+00  0.00000000E+00  0.10000000E+01
  0.00000000E+00
  0.00000000E+00  0.00000000E+00  0.00000000E+00  0.00000000E+00  0.00000000E+00
  0.10000000E+01
*p functions
  7  5
  0.30700630E+01  0.22379640E+01  0.85225500E+00  0.50443600E+00  0.26680000E+00
  0.68732000E-01  0.23444000E-01
 -0.39044315E+01  0.00000000E+00  0.00000000E+00  0.00000000E+00  0.00000000E+00
  0.40688070E+01  0.00000000E+00  0.00000000E+00  0.00000000E+00  0.00000000E+00
  0.00000000E+00  0.67139100E+00  0.00000000E+00  0.00000000E+00  0.00000000E+00
  0.00000000E+00  0.34743650E+00  0.00000000E+00  0.00000000E+00  0.00000000E+00
  0.00000000E+00  0.00000000E+00  0.10000000E+01  0.00000000E+00  0.00000000E+00
  0.00000000E+00  0.00000000E+00  0.00000000E+00  0.10000000E+01  0.00000000E+00
  0.00000000E+00  0.00000000E+00  0.00000000E+00  0.00000000E+00  0.10000000E+01
*d functions
  6  3
  0.40535630E+01  0.16526000E+01  0.70685900E+00  0.28636700E+00  0.10875700E+00
  0.33000000E-01
 -0.20420100E-01  0.00000000E+00  0.00000000E+00
  0.20898540E+00  0.00000000E+00  0.00000000E+00
  0.47055150E+00  0.00000000E+00  0.00000000E+00
  0.47588600E+00  0.00000000E+00  0.00000000E+00
  0.00000000E+00  0.10000000E+01  0.00000000E+00
  0.00000000E+00  0.00000000E+00  0.10000000E+01
PP,nb,28,4;
1; ! G POTENTIAL
2, 1.00000000,.000000000;
2; ! S-G POTENTIAL
2, 8.90000000,165.179143;
2, 4.43000000,21.9929740;
2; ! P-G POTENTIAL
2, 7.77000000,111.794414;
2, 3.96000000,16.6334830;
2; ! D-G POTENTIAL
2, 6.05000000,38.1122490;
2, 2.84000000,8.03916700;
2; ! F-G POTENTIAL
2, 8.49000000,-22.929550;
2, 4.25000000,-3.6663100;
*
Spectral
End of Spectral
*
***************************************
*   ECP28MWB
/Mo.ECP.Stoll.8s7p6d.6s5p3d.14e-MWB.
Ref 10: D. Andrae, U. Haeussermann, M. Dolg, H. Stoll, H. Preuss,
 * Theor. Chim. Acta 77, 123 (1990).
    14.0000  2
*s functions
  8  6
  0.72033800E+01  0.50522950E+01  0.29135330E+01  0.10289930E+01  0.46953400E+00
  0.11001400E+00  0.46115000E-01  0.15000000E-01
 -0.82629730E+00  0.00000000E+00  0.00000000E+00  0.00000000E+00  0.00000000E+00
  0.00000000E+00
  0.14675616E+01  0.00000000E+00  0.00000000E+00  0.00000000E+00  0.00000000E+00
  0.00000000E+00
  0.31895490E+00  0.00000000E+00  0.00000000E+00  0.00000000E+00  0.00000000E+00
  0.00000000E+00
  0.00000000E+00  0.10000000E+01  0.00000000E+00  0.00000000E+00  0.00000000E+00
  0.00000000E+00
  0.00000000E+00  0.00000000E+00  0.10000000E+01  0.00000000E+00  0.00000000E+00
  0.00000000E+00
  0.00000000E+00  0.00000000E+00  0.00000000E+00  0.10000000E+01  0.00000000E+00
  0.00000000E+00
  0.00000000E+00  0.00000000E+00  0.00000000E+00  0.00000000E+00  0.10000000E+01
  0.00000000E+00
  0.00000000E+00  0.00000000E+00  0.00000000E+00  0.00000000E+00  0.00000000E+00
  0.10000000E+01
*p functions
  7  5
  0.31518660E+01  0.24534820E+01  0.87877300E+00  0.49079100E+00  0.28471400E+00
  0.71182000E-01  0.23607000E-01
 -0.47381435E+01  0.00000000E+00  0.00000000E+00  0.00000000E+00  0.00000000E+00
  0.50190400E+01  0.00000000E+00  0.00000000E+00  0.00000000E+00  0.00000000E+00
  0.00000000E+00  0.74936290E+00  0.00000000E+00  0.00000000E+00  0.00000000E+00
  0.00000000E+00  0.27056970E+00  0.00000000E+00  0.00000000E+00  0.00000000E+00
  0.00000000E+00  0.00000000E+00  0.10000000E+01  0.00000000E+00  0.00000000E+00
  0.00000000E+00  0.00000000E+00  0.00000000E+00  0.10000000E+01  0.00000000E+00
  0.00000000E+00  0.00000000E+00  0.00000000E+00  0.00000000E+00  0.10000000E+01
*d functions
  6  3
  0.50347700E+01  0.18021490E+01  0.80725000E+00  0.33900500E+00  0.12834200E+00
  0.43000000E-01
 -0.23943000E-01  0.00000000E+00  0.00000000E+00
  0.21945760E+00  0.00000000E+00  0.00000000E+00
  0.46117140E+00  0.00000000E+00  0.00000000E+00
  0.46712100E+00  0.00000000E+00  0.00000000E+00
  0.00000000E+00  0.10000000E+01  0.00000000E+00
  0.00000000E+00  0.00000000E+00  0.10000000E+01
PP,mo,28,4;
1; ! G POTENTIAL
2, 1.00000000,.000000000;
2; ! S-G POTENTIAL
2, 9.71459400,180.103108;
2, 4.68050000,24.9972280;
2; ! P-G POTENTIAL
2, 8.14213700,123.772752;
2, 4.62598600,19.5302280;
2; ! D-G POTENTIAL
2, 6.61841500,48.3750220;
2, 3.24875200,8.89205300;
2; ! F-G POTENTIAL
2, 9.45000000,-24.805177;
2, 4.72000000,-4.1537820;
*
Spectral
End of Spectral
*
***************************************
*   ECP28MWB
/Tc.ECP.Stoll.8s7p6d.6s5p3d.15e-MWB.
Ref 10: D. Andrae, U. Haeussermann, M. Dolg, H. Stoll, H. Preuss,
 * Theor. Chim. Acta 77, 123 (1990).
    15.0000   2
*s functions
  8  6
  0.74344020E+01  0.55513270E+01  0.30230860E+01  0.10846690E+01  0.49258500E+00
  0.11389600E+00  0.46887000E-01  0.16000000E-01
 -0.11125180E+01  0.00000000E+00  0.00000000E+00  0.00000000E+00  0.00000000E+00
  0.00000000E+00
  0.18144998E+01  0.00000000E+00  0.00000000E+00  0.00000000E+00  0.00000000E+00
  0.00000000E+00
  0.25692920E+00  0.00000000E+00  0.00000000E+00  0.00000000E+00  0.00000000E+00
  0.00000000E+00
  0.00000000E+00  0.10000000E+01  0.00000000E+00  0.00000000E+00  0.00000000E+00
  0.00000000E+00
  0.00000000E+00  0.00000000E+00  0.10000000E+01  0.00000000E+00  0.00000000E+00
  0.00000000E+00
  0.00000000E+00  0.00000000E+00  0.00000000E+00  0.10000000E+01  0.00000000E+00
  0.00000000E+00
  0.00000000E+00  0.00000000E+00  0.00000000E+00  0.00000000E+00  0.10000000E+01
  0.00000000E+00
  0.00000000E+00  0.00000000E+00  0.00000000E+00  0.00000000E+00  0.00000000E+00
  0.10000000E+01
*p functions
  7  5
  0.34490050E+01  0.26927370E+01  0.95948400E+00  0.48521300E+00  0.28149000E+00
  0.68371000E-01  0.22613000E-01
 -0.48161381E+01  0.00000000E+00  0.00000000E+00  0.00000000E+00  0.00000000E+00
  0.50866054E+01  0.00000000E+00  0.00000000E+00  0.00000000E+00  0.00000000E+00
  0.00000000E+00  0.74490720E+00  0.00000000E+00  0.00000000E+00  0.00000000E+00
  0.00000000E+00  0.28268630E+00  0.00000000E+00  0.00000000E+00  0.00000000E+00
  0.00000000E+00  0.00000000E+00  0.10000000E+01  0.00000000E+00  0.00000000E+00
  0.00000000E+00  0.00000000E+00  0.00000000E+00  0.10000000E+01  0.00000000E+00
  0.00000000E+00  0.00000000E+00  0.00000000E+00  0.00000000E+00  0.10000000E+01
*d functions
  6  3
  0.51222680E+01  0.19540150E+01  0.85475600E+00  0.36058100E+00  0.14127500E+00
  0.47000000E-01
 -0.33237600E-01  0.00000000E+00  0.00000000E+00
  0.24673870E+00  0.00000000E+00  0.00000000E+00
  0.48023800E+00  0.00000000E+00  0.00000000E+00
  0.42886640E+00  0.00000000E+00  0.00000000E+00
  0.00000000E+00  0.10000000E+01  0.00000000E+00
  0.00000000E+00  0.00000000E+00  0.10000000E+01
PP,tc,28,4;
1; ! G POTENTIAL
2, 1.00000000,.000000000;
2; ! S-G POTENTIAL
2, 10.4223460,195.159166;
2, 5.03651600,28.0926030;
2; ! P-G POTENTIAL
2, 8.95044900,135.284566;
2, 4.85443900,21.8065040;
2; ! D-G POTENTIAL
2, 6.94569700,54.3297290;
2, 3.97058500,11.1550680;
2; ! F-G POTENTIAL
2, 10.4000000,-26.562447;
2, 5.20000000,-4.5856810;
*
Spectral
End of Spectral
*
***************************************
*   ECP28MWB
/Ru.ECP.Stoll.8s7p6d.6s5p3d.16e-MWB.
Ref 10: D. Andrae, U. Haeussermann, M. Dolg, H. Stoll, H. Preuss,
 * Theor. Chim. Acta 77, 123 (1990).
    16.0000   2
*s functions
  8  6
[...]
 -0.00003537  0.00089623 0.0 0.0 0.0 0.0 1.0
*d functions
  10  6
  0.81202858E+02  0.18325575E+02  0.10454699E+02  0.36663120E+01  0.19233490E+01
  0.98963800E+00  0.49534600E+00  0.20445500E+00  0.73273000E-01  0.50000000E-02
  0.00161967 -0.00060694 0.0 0.0 0.0 0.0
  0.02517194 -0.00669678 0.0 0.0 0.0 0.0
 -0.08959837  0.02538004 0.0 0.0 0.0 0.0
  0.40924317 -0.14909567 0.0 0.0 0.0 0.0
  0.48205436 -0.14977618 0.0 0.0 0.0 0.0
  0.21113169 -0.00488425 0.0 0.0 0.0 0.0
  0.03377720  0.29174186 1.0 0.0 0.0 0.0
  0.00136558  0.51174456 0.0 1.0 0.0 0.0
 -0.00013527  0.38818955 0.0 0.0 1.0 0.0
 -0.00000147  0.01076465 0.0 0.0 0.0 1.0
*f functions
  8  4
  0.55334525E+02  0.16588649E+02  0.47575180E+01  0.23875500E+01  0.11301950E+01
  0.48953500E+00  0.18142000E+00  0.50000000E-02
  0.00130203  0.0 0.0 0.0
  0.00992591  0.0 0.0 0.0
  0.13123328  0.0 0.0 0.0
  0.32006807  0.0 0.0 0.0
  0.39765235  0.0 0.0 0.0
  0.31666872  1.0 0.0 0.0
  0.13907057  0.0 1.0 0.0
  0.00057461  0.0 0.0 1.0
*g functions
  2  2
  0.12649000E+01  0.50600000E+00
  0.10000000E+01  0.00000000E+00
  0.00000000E+00  0.10000000E+01
**** ADD A PSEUDO POTENTIAL HERE
*
Spectral Representation Operator
SOC
**
* Spin-Orbit-Core basis set: all-electron RAF-basis
*
   4
   29  12   4
 20937546. 4399173.9 1188162.8 375430.04 132390.27 50702.255 20722.029 8928.2274
 4018.3294 1874.6662 896.00546 413.80968 214.61136 110.58599 52.140838 27.905519
 12.810718 7.0476135 2.9255957 1.5568598 0.6703872 0.3200485 0.0626801 0.0267551
  0.61529800E+00  0.28663900E+00  0.71170000E-01 0.30539000E-01  0.50000000E-02
 -0.004010  0.001663 -0.000812 -0.000421  0.000208  0.000092  0.000027  0.0 0.0 0.0 0.0 0.0
 -0.005970  0.002487 -0.001215 -0.000631  0.000312  0.000138  0.000041  0.0 0.0 0.0 0.0 0.0
 -0.014049  0.005879 -0.002874 -0.001492  0.000738  0.000326  0.000096  0.0 0.0 0.0 0.0 0.0
 -0.023937  0.010128 -0.004964 -0.002579  0.001276  0.000564  0.000166  0.0 0.0 0.0 0.0 0.0
 -0.044858  0.019244 -0.009445 -0.004910  0.002429  0.001073  0.000316  0.0 0.0 0.0 0.0 0.0
 -0.075203  0.033171 -0.016396 -0.008531  0.004227  0.001868  0.000550  0.0 0.0 0.0 0.0 0.0
 -0.127775  0.058373 -0.028920 -0.015082  0.007459  0.003296  0.000971  0.0 0.0 0.0 0.0 0.0
 -0.197490  0.096771 -0.048913 -0.025562  0.012704  0.005619  0.001655  0.0 0.0 0.0 0.0 0.0
 -0.274271  0.145838 -0.073937 -0.038890  0.019206  0.008485  0.002500  0.0 0.0 0.0 0.0 0.0
 -0.282262  0.171090 -0.091439 -0.048184  0.024203  0.010730  0.003160  0.0 0.0 0.0 0.0 0.0
 -0.168880  0.035520 -0.003127 -0.000267 -0.000724 -0.000403 -0.000119  0.0 0.0 0.0 0.0 0.0
 -0.030209 -0.339949  0.271885  0.163463 -0.082270 -0.036532 -0.010772  0.0 0.0 0.0 0.0 0.0
  0.000875 -0.516962  0.578074  0.365289 -0.195335 -0.087902 -0.025962  0.0 0.0 0.0 0.0 0.0
 -0.000336 -0.261414  0.123124  0.072742 -0.028614 -0.011833 -0.003438  0.0 0.0 0.0 0.0 0.0
  0.000084 -0.011119 -0.852059 -1.040641  0.629899  0.292499  0.086818  0.0 0.0 0.0 0.0 0.0
  0.000017 -0.004503 -0.432331 -0.463637  0.328660  0.160323  0.048070  0.0 0.0 0.0 0.0 0.0
 -0.000037  0.003664 -0.067588  0.976975 -1.139794 -0.623651 -0.190432  0.0 0.0 0.0 0.0 0.0
  0.000025 -0.002335  0.021416  0.549899 -0.635078 -0.363846 -0.112017  0.0 0.0 0.0 0.0 0.0
 -0.000014  0.001250 -0.010532  0.048769  1.131671  1.066494  0.356329  0.0 0.0 0.0 0.0 0.0
  0.000010 -0.000807  0.006789 -0.013380  0.451275  0.502328  0.182996  0.0 0.0 0.0 0.0 0.0
 -0.000004  0.000337 -0.002822  0.004779  0.041938 -0.795900 -0.377682  0.0 0.0 0.0 0.0 0.0
  0.000001 -0.000122  0.001023 -0.001724 -0.008105 -0.697416 -0.466208  0.0 0.0 0.0 0.0 0.0
  0.000000  0.000026 -0.000220  0.000352  0.001804 -0.032274  0.667636  0.0 0.0 0.0 0.0 0.0
  0.000000 -0.000012  0.000099 -0.000158 -0.000810  0.010356  0.541546  0.0 0.0 0.0 0.0 0.0
  0.0       0.0       0.0       0.0       0.0       0.0       0.0       1.0 0.0 0.0 0.0 0.0
  0.0       0.0       0.0       0.0       0.0       0.0       0.0       0.0 1.0 0.0 0.0 0.0
  0.0       0.0       0.0       0.0       0.0       0.0       0.0       0.0 0.0 1.0 0.0 0.0
  0.0       0.0       0.0       0.0       0.0       0.0       0.0       0.0 0.0 0.0 1.0 0.0
  0.0       0.0       0.0       0.0       0.0       0.0       0.0       0.0 0.0 0.0 0.0 1.0
   24  10 3
 120600.79 28560.601 9273.7561 3545.6633 1504.2902 686.21916 329.71380 164.16782
 81.521022 42.330850 21.567051 11.090782 5.6590355 2.7909767 1.3585624 0.6777239
 0.2652057 0.0626801 0.0267551
  0.14938570E+01  0.79281700E+00  0.35154200E+00  0.14396200E+00  0.50000000E-02
  0.003058 -0.001631  0.000852 -0.000407  0.000162  0.0 0.0 0.0 0.0 0.0
  0.007894 -0.004251  0.002226 -0.001066  0.000424    0.0 0.0 0.0 0.0 0.0
  0.023286 -0.012700  0.006670 -0.003193  0.001269    0.0 0.0 0.0 0.0 0.0
  0.060778 -0.033789  0.017843 -0.008566  0.003409    0.0 0.0 0.0 0.0 0.0
  0.147170 -0.084713  0.045099 -0.021641  0.008600    0.0 0.0 0.0 0.0 0.0
  0.283342 -0.170004  0.091662 -0.044308  0.017673    0.0 0.0 0.0 0.0 0.0
  0.373258 -0.228669  0.123442 -0.059214  0.023478    0.0 0.0 0.0 0.0 0.0
  0.253371 -0.037852 -0.004087  0.004557 -0.001871    0.0 0.0 0.0 0.0 0.0
  0.059538  0.432199 -0.368890  0.201632 -0.082900    0.0 0.0 0.0 0.0 0.0
 -0.000904  0.520599 -0.438667  0.229361 -0.091931    0.0 0.0 0.0 0.0 0.0
  0.001530  0.157150  0.291585 -0.238257  0.103467    0.0 0.0 0.0 0.0 0.0
 -0.001057  0.003727  0.720271 -0.659428  0.307104    0.0 0.0 0.0 0.0 0.0
  0.000590  0.002267  0.235977  0.072761 -0.084056    0.0 0.0 0.0 0.0 0.0
 -0.000321 -0.001263  0.011479  0.803641 -0.516175    0.0 0.0 0.0 0.0 0.0
  0.000180  0.000578  0.000233  0.329162 -0.222763    0.0 0.0 0.0 0.0 0.0
 -0.000078 -0.000254 -0.000011  0.021213  0.644404    0.0 0.0 0.0 0.0 0.0
  0.000021  0.000069 -0.000033  0.001942  0.604814    0.0 0.0 0.0 0.0 0.0
 -0.000007 -0.000021  0.000015 -0.000508  0.048540    0.0 0.0 0.0 0.0 0.0
  0.000003  0.000010 -0.000006  0.000196 -0.009733    0.0 0.0 0.0 0.0 0.0
  0.0       0.0       0.0       0.0       0.0         1.0 0.0 0.0 0.0 0.0
  0.0       0.0       0.0       0.0       0.0         0.0 1.0 0.0 0.0 0.0
  0.0       0.0       0.0       0.0       0.0         0.0 0.0 1.0 0.0 0.0
  0.0       0.0       0.0       0.0       0.0         0.0 0.0 0.0 1.0 0.0
  0.0       0.0       0.0       0.0       0.0         0.0 0.0 0.0 0.0 1.0
   18    8 2
 4232.0298 1279.9937 498.41509 219.43488 103.52884 50.931625 25.031067 12.309789
 6.0167170 2.8100318 1.2365305 0.3943750 0.1209164 0.0400000
 0.49534600E+00  0.20445500E+00  0.73273000E-01  0.50000000E-02
  0.002981 -0.001679 -0.000741 -0.000220  0.000000  0.000000  0.000000 0.000000
  0.017733 -0.010045 -0.004422 -0.001321  0.000000  0.000000  0.000000 0.000000
  0.074866 -0.043246 -0.019204 -0.005696  0.000000  0.000000  0.000000 0.000000
  0.216360 -0.126780 -0.056199 -0.016837  0.000000  0.000000  0.000000 0.000000
  0.391358 -0.226044 -0.100674 -0.029701  0.000000  0.000000  0.000000 0.000000
  0.370034 -0.129146 -0.043996 -0.013264  0.000000  0.000000  0.000000 0.000000
  0.133974  0.307281  0.186511  0.060084  0.000000  0.000000  0.000000 0.000000
  0.009042  0.560054  0.330088  0.097804  0.000000  0.000000  0.000000 0.000000
  0.001355  0.255042 -0.080849 -0.030757  0.000000  0.000000  0.000000 0.000000
 -0.000548  0.021889 -0.613373 -0.260355  0.000000  0.000000  0.000000 0.000000
  0.000202  0.000212 -0.419753 -0.053130  0.000000  0.000000  0.000000 0.000000
 -0.000064 -0.000143 -0.044492  0.569363  0.000000  0.000000  0.000000 0.000000
  0.000023  0.000034  0.006727  0.547169  0.000000  0.000000  0.000000 0.000000
 -0.000009 -0.000017 -0.001889  0.064276  0.000000  0.000000  0.000000 0.000000
  0.0       0.0       0.0       0.0       1.0       0.0       0.0      0.0
  0.0       0.0       0.0       0.0       0.0       1.0       0.0      0.0
  0.0       0.0       0.0       0.0       0.0       0.0       1.0      0.0
  0.0       0.0       0.0       0.0       0.0       0.0       0.0      1.0
   14    5 1
 634.16589 221.53708 95.048353 44.518096 21.679698 10.633304 5.0959938 2.2294102
 0.9128159 0.3288707 0.1000000
  0.48953500E+00  0.18142000E+00  0.50000000E-02
  0.002777 -0.000830  0.000000  0.000000  0.000000
  0.021157 -0.006373  0.000000  0.000000  0.000000
  0.088577 -0.026666  0.000000  0.000000  0.000000
  0.233368 -0.070320  0.000000  0.000000  0.000000
  0.377776 -0.105311  0.000000  0.000000  0.000000
  0.367624 -0.073389  0.000000  0.000000  0.000000
  0.174315  0.121651  0.000000  0.000000  0.000000
  0.023897  0.377949  0.000000  0.000000  0.000000
 -0.000498  0.455428  0.000000  0.000000  0.000000
  0.000302  0.303942  0.000000  0.000000  0.000000
 -0.000065  0.072336  0.000000  0.000000  0.000000
  0.0       0.0       1.0       0.0       0.0
  0.0       0.0       0.0       1.0       0.0
  0.0       0.0       0.0       0.0       1.0
  2  2 0
  0.12649000E+01  0.50600000E+00
  0.10000000E+01  0.00000000E+00
  0.00000000E+00  0.10000000E+01
*
DKSO
*
End Of Spectral Representation Operator
***************************************
*   ERROR - Not quite Stuttgart RSC 1997 ECP
* commented out, since there is no pseudopotential
*/Pu.ECP.Stoll.12s11p10d8f2g.8s7p6d4f2g.34e-SOC.
-Basissatz fuer PP. von W. Kuechle, Diplomarbeit 1993.
 Recontracted and modified for use with AMFI
   34.   4
*s functions
   12    8
  0.94868027E+03  0.54715783E+02  0.35296205E+02  0.24290501E+02  0.11292792E+02
  0.30681880E+01  0.15936980E+01  0.69447400E+00  0.31770700E+00  0.72427000E-01
  0.29548000E-01  0.50000000E-02
  0.00044163 -0.00036191  0.00013294  0.0 0.0 0.0 0.0 0.0
  0.05379798 -0.03264794  0.01076804  0.0 0.0  0.0 0.0 0.0
 -0.40372704  0.27353490 -0.09429684  0.0 0.0 0.0 0.0 0.0
  0.84310172 -0.61576049  0.21814843  0.0 0.0 0.0 0.0 0.0
 -1.16665551  0.96816330 -0.35809262   0.0 0.0 0.0 0.0 0.0
  0.93464514 -1.23093377  0.51660625 0.0 0.0 0.0 0.0 0.0
  0.30611351 -0.41185738  0.18833732  1.0 0.0 0.0 0.0 0.0
  0.16397215  0.85710171 -0.54707451  0.0 1.0 0.0 0.0 0.0
  0.08971237  0.49668252 -0.47508999  0.0 0.0 1.0 0.0 0.0
  0.00747049  0.09772521  0.63045011  0.0 0.0  0.0 0.0 0.0
  0.00311094  0.06814306  0.57747440  0.0 0.0  0.0 1.0 0.0
  0.00018276  0.00193055  0.01037688  0.0 0.0  0.0 0.0 1.0
*p functions
  11   7
  0.45183704E+03  0.10512519E+03  0.25326262E+02  0.67690460E+01  0.57127970E+01
  0.24639650E+01  0.11565570E+01  0.64755800E+00  0.30024700E+00  0.12321800E+00
  0.50000000E-02
  0.00330908 -0.00141321   0.0 0.0 0.0 0.0 0.0
  0.01699103 -0.00816992   0.0 0.0 0.0 0.0 0.0
  0.05538887 -0.01988806   0.0 0.0 0.0 0.0 0.0
 -1.13224357  0.49372127  0.0 0.0 0.0 0.0 0.0
  1.12870951 -0.58745610 0.0 0.0 0.0 0.0 0.0
  0.81994085 -0.30636455  1.0 0.0 0.0 0.0 0.0
  0.21370170  0.03838421  0.0 1.0 0.0 0.0 0.0
 -0.12053766  0.56289645  0.0 0.0 1.0 0.0 0.0
 -0.09955573  0.49919526  0.0 0.0 0.0 0.0 0.0
 -0.02077038  0.09423271  0.0 0.0 0.0 1.0 0.0
 -0.00007501  0.00045625  0.0 0.0 0.0 0.0 1.0
*d functions
  10   6
  0.37406434E+02  0.69380820E+01  0.55058170E+01  0.25302880E+01  0.13031880E+01
  0.65152100E+00  0.30124600E+00  0.13145800E+00  0.53028000E-01  0.10000000E-01
  0.00955837 -0.00318653  0.0 0.0 0.0 0.0
 -0.32602301  0.11193756 0.0 0.0 0.0 0.0
  0.51021748 -0.18984416 0.0 0.0 0.0 0.0
  0.54043988 -0.19288094 0.0 0.0 0.0 0.0
  0.28160197 -0.04352319 0.0 0.0 0.0 0.0
  0.06456739  0.22315393 0.0 0.0 0.0 0.0
  0.00155526  0.42586354 1.0 0.0 0.0 0.0
  0.00082479  0.40073335 0.0 1.0 0.0 0.0
 -0.00036216  0.17268905 0.0 0.0 1.0 0.0
  0.00004136  0.00527752 0.0 0.0 0.0 1.0
*f functions
  8  4
  0.43171380E+02  0.14277424E+02  0.48820620E+01  0.23211950E+01  0.10680390E+01
  0.46806100E+00  0.18795300E+00  0.50000000E-01
  0.00353571  0.0 0.0 0.0
  0.02070111  0.0 0.0 0.0
  0.18438769  0.0 0.0 0.0
  0.38115469  0.0 0.0 0.0
  0.38619359  0.0 0.0 0.0
  0.24653446  1.0 0.0 0.0
  0.08719041  0.0 1.0 0.0
  0.00638167  0.0 0.0 1.0
*g functions
  2  2
  0.11308000E+01  0.45240000E+00
  0.10000000E+01  0.00000000E+00
  0.00000000E+00  0.10000000E+01
**** ADD A PSEUDO POTENTIAL HERE
*
Spectral Representation Operator
SOC
   4
   30   12   4
    5.425164424E+07
    1.394673818E+07
    4.475086735E+06
    1.553698391E+06
    5.744367446E+05
    2.212489932E+05
    8.824130912E+04
    3.603707262E+04
    1.494363922E+04
    6.293256143E+03
    2.710718529E+03
    1.199697017E+03
    5.437359139E+02
    2.562840683E+02
    1.250265401E+02
    6.278829253E+01
    3.188571920E+01
    1.606677889E+01
    8.132733156E+00
    3.874723208E+00
    1.808680709E+00
    7.658499828E-01
    2.974020331E-01
    8.798264149E-02
    3.235544658E-02
0.69447400E+00  0.31770700E+00  0.72427000E-01
  0.29548000E-01  0.50000000E-02
 -.002493  .001045  .000511 -.000267  .000134 -.000059  .000017   0.0 0.0 0.0 0.0 0.0
 -.002351  .000988  .000484 -.000252  .000126 -.000056  .000016   0.0 0.0 0.0 0.0 0.0
 -.006537  .002751  .001347 -.000703  .000352 -.000156  .000045   0.0 0.0 0.0 0.0 0.0
 -.009646  .004082  .002001 -.001044  .000523 -.000232  .000067   0.0 0.0 0.0 0.0 0.0
 -.019076  .008120  .003986 -.002080  .001042 -.000463  .000133   0.0 0.0 0.0 0.0 0.0
 -.031500  .013577  .006678 -.003487  .001747 -.000776  .000223   0.0 0.0 0.0 0.0 0.0
 -.056507  .024779  .012227 -.006388  .003201 -.001422  .000408   0.0 0.0 0.0 0.0 0.0
 -.096091  .043445  .021549 -.011280  .005653 -.002510  .000720   0.0 0.0 0.0 0.0 0.0
 -.164723  .078058  .039066 -.020477  .010272 -.004566  .001310   0.0 0.0 0.0 0.0 0.0
 -.254816  .130948  .066516 -.035050  .017592 -.007810  .002242   0.0 0.0 0.0 0.0 0.0
 -.317611  .181738  .094412 -.049902  .025109 -.011183  .003207   0.0 0.0 0.0 0.0 0.0
 -.232687  .116304  .056838 -.029814  .014876 -.006548  .001883   0.0 0.0 0.0 0.0 0.0
 -.058687 -.243625 -.197450  .117721 -.060932  .027136 -.007807   0.0 0.0 0.0 0.0 0.0
 -.000407 -.586113 -.592405  .372283 -.196959  .089073 -.025582   0.0 0.0 0.0 0.0 0.0
 -.000784 -.301360 -.276420  .186474 -.099592  .043901 -.012699   0.0 0.0 0.0 0.0 0.0
  .000510 -.022484  .773227 -.875297  .541023 -.250582  .072663   0.0 0.0 0.0 0.0 0.0
 -.000283 -.001953  .585178 -.818069  .557676 -.274780  .079586   0.0 0.0 0.0 0.0 0.0
  .000166  .001175  .043665  .897975 -.917331  .499741 -.147007   0.0 0.0 0.0 0.0 0.0
 -.000098 -.000495  .007947  .755526 -1.138068  .669621 -.203626 0.0 0.0   0.0 0.0 0.0
  .000050  .000235 -.004034  .032322  1.068380 -.914711  .295758 0.0 0.0   0.0 0.0 0.0
 -.000023 -.000119  .001801  .007793  .724808 -.895356  .307228  0.0 0.0  0.0 0.0 0.0
  .000009  .000048 -.000766 -.003167 -.002367 1.017675 -.442174  0.0 0.0  0.0 0.0 0.0
 -.000003 -.000017  .000291  .001146  .009497  .620044 -.485594  0.0 0.0  0.0 0.0 0.0
  .000001  .000006 -.000100 -.000415 -.003271 -.017716  .519569  0.0 0.0  0.0 0.0 0.0
  .000000 -.000002  .000034  .000140  .001110  .008739  .749642  0.0 0.0  0.0 0.0 0.0
  0.0       0.0     0.0      0.0       0.0      0.0     0.0      1.0 0.0  0.0 0.0 0.0
  0.0       0.0     0.0      0.0       0.0      0.0     0.0      0.0 1.0  0.0 0.0 0.0
  0.0       0.0     0.0      0.0       0.0      0.0     0.0      0.0 0.0  1.0 0.0 0.0
  0.0       0.0     0.0      0.0       0.0      0.0     0.0      0.0 0.0  0.0 1.0 0.0
  0.0       0.0     0.0      0.0       0.0      0.0     0.0      0.0 0.0  0.0 0.0 1.0
   26   10  3
    2.293607723E+07
    4.612429374E+06
    1.121619234E+06
    3.081530871E+05
    9.312164423E+04
    3.055654748E+04
    1.084433543E+04
    4.155410468E+03
    1.708633648E+03
    7.449121265E+02
    3.405606528E+02
    1.615439773E+02
    7.718404638E+01
    3.803523371E+01
    1.875849133E+01
    9.209353649E+00
    4.336689094E+00
    1.989897857E+00
    8.403134336E-01
    3.197113844E-01
    1.025801540E-01
0.11565570E+01  0.64755800E+00  0.30024700E+00  0.12321800E+00
  0.50000000E-02
  .000058 -.000031  .000016  .000008  .000003    0.0 0.0 0.0 0.0 0.0
  .000136 -.000072  .000038  .000018  .000007    0.0 0.0 0.0 0.0 0.0
  .000381 -.000203  .000107  .000052  .000021    0.0 0.0 0.0 0.0 0.0
  .000992 -.000530  .000278  .000135  .000054    0.0 0.0 0.0 0.0 0.0
  .002665 -.001431  .000753  .000365  .000145    0.0 0.0 0.0 0.0 0.0
  .007302 -.003947  .002080  .001010  .000400    0.0 0.0 0.0 0.0 0.0
  .020390 -.011158  .005895  .002863  .001138    0.0 0.0 0.0 0.0 0.0
  .056224 -.031309  .016632  .008089  .003209    0.0 0.0 0.0 0.0 0.0
  .142907 -.082300  .044045  .021465  .008539    0.0 0.0 0.0 0.0 0.0
  .295547 -.177734  .096432  .047163  .018714    0.0 0.0 0.0 0.0 0.0
  .397991 -.242654  .131357  .064201  .025630    0.0 0.0 0.0 0.0 0.0
  .248125  .000189 -.033081 -.021029 -.009101    0.0 0.0 0.0 0.0 0.0
  .041388  .534407 -.463921 -.255659 -.103591    0.0 0.0 0.0 0.0 0.0
  .000104  .474820 -.349959 -.179582 -.073932    0.0 0.0 0.0 0.0 0.0
 -.000089  .078145  .575666  .479787  .218338    0.0 0.0 0.0 0.0 0.0
  .000033  .003877  .627984  .567933  .250847    0.0 0.0 0.0 0.0 0.0
 -.000041 -.001534  .078277 -.637974 -.401626    0.0 0.0 0.0 0.0 0.0
  .000033  .000697  .002743 -.661498 -.478834    0.0 0.0 0.0 0.0 0.0
 -.000013 -.000331 -.001143 -.057071  .544322    0.0 0.0 0.0 0.0 0.0
  .000005  .000122  .000447 -.003387  .684311    0.0 0.0 0.0 0.0 0.0
 -.000001 -.000032 -.000123  .000989  .069675    0.0 0.0 0.0 0.0 0.0
   0.0      0.0     0.0       0.0     0.0        1.0 0.0 0.0 0.0 0.0
   0.0      0.0     0.0       0.0     0.0        0.0 1.0 0.0 0.0 0.0
   0.0      0.0     0.0       0.0     0.0        0.0 0.0 1.0 0.0 0.0
   0.0      0.0     0.0       0.0     0.0        0.0 0.0 0.0 1.0 0.0
   0.0      0.0     0.0       0.0     0.0        0.0 0.0 0.0 0.0 1.0
   20    8   2
    1.494363922E+04
    6.293256143E+03
    2.710718529E+03
    1.199697017E+03
    5.437359139E+02
    2.562840683E+02
    1.250265401E+02
    6.278829253E+01
    3.188571920E+01
    1.606677889E+01
    8.132733156E+00
    3.874723208E+00
    1.808680709E+00
    7.658499828E-01
    2.974020331E-01
    8.798264149E-02
0.30124600E+00  0.13145800E+00  0.53028000E-01  0.10000000E-01
  .000347 -.000197  .000089  .000025   0.0 0.0 0.0 0.0
  .000882 -.000500  .000222  .000063   0.0 0.0 0.0 0.0
  .004248 -.002421  .001097  .000308   0.0 0.0 0.0 0.0
  .017090 -.009807  .004392  .001239   0.0 0.0 0.0 0.0
  .063040 -.036686  .016656  .004679   0.0 0.0 0.0 0.0
  .179402 -.106272  .047997  .013545   0.0 0.0 0.0 0.0
  .349916 -.205513  .093738  .026326   0.0 0.0 0.0 0.0
  .388272 -.179412  .072654  .020296   0.0 0.0 0.0 0.0
  .186908  .177086 -.118164 -.035682   0.0 0.0 0.0 0.0
  .026442  .532462 -.330417 -.096301   0.0 0.0 0.0 0.0
  .000846  .369574 -.098545 -.023339   0.0 0.0 0.0 0.0
 -.000093  .064015  .500964  .189975   0.0 0.0 0.0 0.0
  .000038 -.001174  .533248  .173598   0.0 0.0 0.0 0.0
 -.000028  .000754  .133153 -.180846   0.0 0.0 0.0 0.0
  .000007 -.000278  .000766 -.592212   0.0 0.0 0.0 0.0
 -.000003  .000059  .000431 -.451644   0.0 0.0 0.0 0.0
   0.0     0.0       0.0     0.0       1.0 0.0 0.0 0.0
   0.0     0.0       0.0     0.0       0.0 1.0 0.0 0.0
   0.0     0.0       0.0     0.0       0.0 0.0 1.0 0.0
   0.0     0.0       0.0     0.0       0.0 0.0 0.0 1.0
   14    5  1
    7.449121265E+02
    3.405606528E+02
    1.615439773E+02
    7.718404638E+01
    3.803523371E+01
    1.875849133E+01
    9.209353649E+00
    4.336689094E+00
    1.989897857E+00
    8.403134336E-01
    3.197113844E-01
 0.46806100E+00  0.18795300E+00  0.50000000E-01
  .001807 -.000585    0.0 0.0 0.0
  .007461 -.002503    0.0 0.0 0.0
  .037244 -.012181    0.0 0.0 0.0
  .123472 -.041388    0.0 0.0 0.0
  .280646 -.090527    0.0 0.0 0.0
  .399247 -.119283    0.0 0.0 0.0
  .320016 -.026162    0.0 0.0 0.0
  .107677  .216161    0.0 0.0 0.0
  .006390  .425106    0.0 0.0 0.0
  .000989  .402030    0.0 0.0 0.0
 -.000226  .224308    0.0 0.0 0.0
   0.0      0.0       1.0 0.0 0.0
   0.0      0.0       0.0 1.0 0.0
   0.0      0.0       0.0 0.0 1.0
  2   2   0
  0.11308000E+01
  0.45240000E+00
  0.10000000E+01  0.00000000E+00
  0.00000000E+00  0.10000000E+01
*
DKSO
*
End Of Spectral Representation Operator

***************************************
