************************************************************************
* This file is part of OpenMolcas.                                     *
*                                                                      *
* OpenMolcas is free software; you can redistribute it and/or modify   *
* it under the terms of the GNU Lesser General Public License, v. 2.1. *
* OpenMolcas is distributed in the hope that it will be useful, but it *
* is provided "as is" and without any express or implied warranties.   *
* For more details see the full text of the license in the file        *
* LICENSE or in <http://www.gnu.org/licenses/>.                        *
************************************************************************
*
* Hay and Wadt pseudo potentials
* in the non-local representation
*
/Na.ECP.HW.3s3p.2s2p.1e-LANL2DZ.
Ref: W.R. Wadt and P.J. Hay, J. Chem. Phys. 82 (1985) 284
core [Ne], Valence [3s]
* Basis set taken from: http://www.emsl.pnl.gov:2080/forms/basisform.html
      1.0   1
 3    2
       0.4972
       0.0560
       0.0221
   -0.2753574    0.0000000
    1.0989969    0.0000000
    0.0000000    1.0000000
 3    2
       0.6697
       0.0636
       0.0204
   -0.0683845    0.0000000
    1.0140550    0.0000000
    0.0000000    1.0000000
M1
 0
M2
 0
COREREP
 1.0
PROJOP
 2
  12  12
 -.3037183268320D+02 -.1159914313260D-05 -.2906095113150D-08 -.6574594882450D-14
  .8192544716110D-11  .6884210767510D-04  .6055275462200D-02  .9773125845890D-01
  .5437609622980D+00  .1810689684000D+01  .7048979087430D+01  .9251019204970D+02
  .5215208279500D-01  .7852182557190D-01  .1222195366270D+00  .1921258113680D+00
  .3020165876310D+00  .4794802411080D+00  .7612207773630D+00  .1208510846140D+01
  .1918626643770D+01  .3046003442950D+01  .4835822021230D+01  .7677330331040D+01
 -.4113040973620D-02 -.7507860915380D+00  .2788469282750D+01  .3052748157680D+02
 -.1313846410420D+02 -.3352226096500D+00  .6643437779890D-01 -.1753159331740D-01
  .5642312514100D-02 -.2815437300440D-02  .1965070286560D-02 -.6607897158980D-03
  .3276418825010D-01  .5760287687730D+01 -.2023044260440D+02 -.1031886063330D+03
  .7202921109800D+02  .2586601407950D+01 -.5279848730910D+00  .1404160418980D+00
 -.4524048635770D-01  .2250408538010D-01 -.1566053463000D-01  .5249531314170D-02
 -.1597390950490D+00 -.2594713641420D+02  .7919460391080D+02  .1757658043150D+03
 -.1728362400620D+03 -.1188274490160D+02  .2561312413240D+01 -.6909103582120D+00
  .2230775015120D+00 -.1103784787610D+00  .7641560506310D-01 -.2547527618830D-01
  .6202883734150D+00  .8393943969740D+02 -.1737579365450D+03 -.2126614285540D+03
  .2621205849560D+03  .4123210890350D+02 -.9833307204520D+01  .2722645624530D+01
 -.8828164221150D+00  .4330767372290D+00 -.2972055456700D+00  .9817727593210D-01
 -.2028041435800D+01 -.1643060285880D+03  .2469210210810D+03  .2067853684910D+03
 -.2931413145520D+03 -.1075513370170D+03  .3124574405350D+02 -.9101399157040D+01
  .2978156615560D+01 -.1441513764030D+01  .9747732879250D+00 -.3171280398120D+00
  .5940549427990D+01  .2171439056570D+03 -.2632616727180D+03 -.1745053122460D+03
  .2693105942700D+03  .1915313885630D+03 -.8393735830010D+02  .2747470361630D+02
 -.9200059199470D+01  .4362878314320D+01 -.2874563272770D+01  .9105636753090D+00
 -.1528280379020D+02 -.2176342424900D+03  .2321735776890D+03  .1343617639790D+03
 -.2178425904000D+03 -.2401359087070D+03  .1511867933000D+03 -.7129692692240D+02
  .2568128442460D+02 -.1188278167760D+02  .7494966498820D+01 -.2265006265540D+01
  .3284070938190D+02  .1759485572140D+03 -.1745668627300D+03 -.9342964848680D+02
  .1558968868950D+03  .2251126399040D+03 -.1820942830540D+03  .1195926544690D+03
 -.5928216390100D+02  .2755833270820D+02 -.1639751890410D+02  .4572866927740D+01
 -.5552562473670D+02 -.1167992674930D+03  .1112681634840D+03  .5690634748020D+02
 -.9658195242270D+02 -.1636440079630D+03  .1547952703460D+03 -.1270735016000D+03
  .8421623943760D+02 -.4882438418020D+02  .2791568079530D+02 -.6803372404340D+01
  .6746276798310D+02  .6139334409190D+02 -.5715192560770D+02 -.2845413507660D+02
  .4878826283610D+02  .9072926330960D+02 -.9396672753480D+02  .8781969264120D+02
 -.6995471696160D+02  .5023469672210D+02 -.3237538908080D+02  .6111421266710D+01
 -.5044408417910D+02 -.2281748305040D+02  .2095773679780D+02  .1026679993840D+02
 -.1771346079730D+02 -.3476954452040D+02  .3781744840650D+02 -.3771731566160D+02
  .3295812008490D+02 -.2666266164470D+02  .1894215200830D+02 -.1366958488060D+01
  .1672322067070D+02  .4438769800010D+01 -.4044492061940D+01 -.1961888356310D+01
  .3397815970700D+01  .6883198867330D+01 -.7675249010020D+01  .7864562671610D+01
 -.7111226869080D+01  .5939428603250D+01 -.4031883313760D+01 -.1809633988870D+01
  10  10
 -.2533829758260D-07 -.1030652937840D-10 -.5865296363750D-15  .3392027826030D-06
  .2663084628250D-03  .1376859397700D-01  .1850997015890D+00  .9691628199980D+00
  .3525728939420D+01  .1910350956880D+02
  .9202340485560D-01  .1261269309630D+00  .1815125497260D+00  .2700455349340D+00
  .4017606002880D+00  .6083750810140D+00  .9212457342350D+00  .1395017201280D+01
  .2112436366930D+01  .3198804574030D+01
 -.1740466392440D+01  .9016969208610D+01 -.3974991587190D+02 -.8006269075120D+00
 -.6977540444980D-01  .1178484683770D-01  .2408483170490D-02  .5771582277740D-03
  .2790984205760D-03  .2374246357040D-03
  .1322262408230D+02 -.5593477745080D+02  .1322904708560D+03  .6331690183890D+01
  .6100540241360D+00 -.1054734718250D+00 -.2173970836650D-01 -.5237414162640D-02
 -.2510529898350D-02 -.2111008610270D-02
 -.5268337284120D+02  .1351459405880D+03 -.2147539842250D+03 -.2785552793440D+02
 -.3255816097840D+01  .5878220601680D+00  .1230260138880D+00  .2991541009720D-01
  .1413700889000D-01  .1165246918980D-01
  .1114630527400D+03 -.2019442749620D+03  .2475182422210D+03  .8199041319360D+02
  .1424264553030D+02 -.2800404039190D+01 -.6031051761310D+00 -.1490782211990D+00
 -.6890781676310D-01 -.5489087106390D-01
 -.1455054649690D+03  .2158899366710D+03 -.2256120379330D+03 -.1456791819020D+03
 -.4621290672590D+02  .1085564643870D+02  .2469068045900D+01  .6276999496760D+00
  .2814887606250D+00  .2122771700440D+00
  .1358467051850D+03 -.1795990770710D+03  .1693209617310D+03  .1737881035990D+03
  .8714626958560D+02 -.3487571940340D+02 -.9066527203690D+01 -.2435074459830D+01
 -.1051568210610D+01 -.7248051338750D+00
 -.9923558266200D+02  .1233100706310D+03 -.1090943812020D+03 -.1507524117730D+03
 -.1017368576450D+03  .6080990868270D+02  .2614354777570D+02  .7959104069780D+01
  .3350361679950D+01  .2065569531580D+01
  .5530915449340D+02 -.6645358797410D+02  .5651022202640D+02  .9428215897900D+02
  .7685783959390D+02 -.5962784183410D+02 -.3727492453080D+02 -.1788784671360D+02
 -.7816280520950D+01 -.4417275321640D+01
 -.2134565996800D+02  .2516833302530D+02 -.2087619406380D+02 -.3923105042670D+02
 -.3602894479180D+02  .3296500685100D+02  .2609949160750D+02  .1752595268010D+02
  .1088212811790D+02  .6128848749020D+01
  .4282818966260D+01 -.4994804170290D+01  .4078121875910D+01  .8263064409300D+01
  .8178939608550D+01 -.8293489560080D+01 -.7570677088000D+01 -.6234141569050D+01
 -.5175569446660D+01 -.4115393446960D+01
   9   9
 -.2247550310830D+01 -.3434358520950D+00 -.5795077987450D-01 -.7203241687480D-02
 -.3594475196100D-03 -.5198405975990D-05 -.1955981317230D-07 -.1863468048670D-10
 -.3290258585200D-14
  .1293727296610D+00  .1681790767170D+00  .2336491550400D+00  .3329730524910D+00
  .4792352965330D+00  .6965997972720D+00  .1012553292860D+01  .1471812330260D+01
  .2160637057710D+01
 -.2513735966600D-03 -.4697705464220D-03  .1115775692370D-02  .4659247710380D-02
 -.2504143851980D-01 -.1618754977860D+00 -.1133050749580D+01  .7557914762000D+01
 -.4366780719810D+02
  .2268540231480D-02  .4285554275390D-02 -.1030407348480D-01 -.4286086020180D-01
  .2272837014590D+00  .1415989217240D+01  .8994005002180D+01 -.4725674141920D+02
  .1359989282010D+03
 -.1423357843810D-01 -.2742716499950D-01  .6733148716140D-01  .2777719930220D+00
 -.1433511764380D+01 -.8256783616910D+01 -.4192859631830D+02  .1160521554820D+03
 -.2123275131740D+03
  .7303474872490D-01  .1454882954800D+00 -.3682697722880D+00 -.1492915110130D+01
  .7285315791320D+01  .3504305691270D+02  .9505778656590D+02 -.1704786393370D+03
  .2343448705610D+03
 -.3050563760380D+00 -.6400719061070D+00  .1682673105850D+01  .6543770590510D+01
 -.2773184855600D+02 -.7271827007920D+02 -.1288222593580D+03  .1750506850510D+03
 -.2004025567510D+03
  .1034164557540D+01  .2310194064820D+01 -.6213203713420D+01 -.2134742101210D+02
  .5131058705260D+02  .8858558754590D+02  .1190974700790D+03 -.1350028164000D+03
  .1371128699130D+03
 -.2576267493550D+01 -.5967977520100D+01  .1514644626440D+02  .3174166653760D+02
 -.5194811864180D+02 -.6899058918200D+02 -.7777867914840D+02  .7846585740850D+02
 -.7377621496740D+02
  .4082672823890D+01  .8998682362060D+01 -.1518304844180D+02 -.2258310464710D+02
  .2912919727880D+02  .3275450352660D+02  .3296053160830D+02 -.3082995803440D+02
  .2756818474340D+02
 -.3204728902080D+01 -.4448418099430D+01  .5481530374550D+01  .6590200330470D+01
 -.7319333688970D+01 -.7383986851990D+01 -.6891203730680D+01  .6128737570390D+01
 -.5299196833120D+01
Spectral Representation Operator
End Of Spectral Representation Operator
*
/Mg.ECP.HW.3s3p.2s2p.2e-LANL2DZ.
Ref: W.R. Wadt and P.J. Hay, J. Chem. Phys. 82 (1985) 284
core [Ne], Valence [3s]
* Basis set taken from: http://www.emsl.pnl.gov:2080/forms/basisform.html
      2.0   1
 3    2
       0.7250
       0.1112
       0.0404
   -0.4058454    0.0000000
    1.1688704    0.0000000
    0.0000000    1.0000000
 3    2
       1.2400
       0.1346
       0.0422
   -0.0749753    0.0000000
    1.0178183    0.0000000
    0.0000000    1.0000000
M1
 0
M2
 0
COREREP
 1.0
PROJOP
 2
  14  14
 -.1003791263060D+03 -.1510113286960D-05 -.4556220177570D-08 -.2460673198720D-11
  .1606510811510D-14  .3055559397520D-04  .6795348255770D-02  .1576784867280D+00
  .8281849559310D+00  .2024470621360D+01  .4531940280910D+01  .1037869985260D+02
  .3088832494780D+02  .3390018231250D+03
  .7149948231980D-01  .1076518823090D+00  .1675605868420D+00  .2634007179940D+00
  .4140588162590D+00  .6573580034470D+00  .1043618751080D+01  .1656844659810D+01
  .2630399486320D+01  .4176010959550D+01  .6629817115220D+01  .1052546925930D+02
  .1671018991970D+02  .2652902595360D+02
  .1264700207890D-02  .7743814079670D+00  .3213606854650D+01  .1106039623860D+02
 -.3170442188950D+02  .3585097606700D+00 -.5266030721820D-01 -.1565012843040D-01
 -.6937410121670D-02  .2248947932410D-02  .3071185498270D-03 -.1701417713330D-03
  .3717503438610D-03 -.1793684656930D-03
 -.1026613356040D-01 -.5957747914280D+01 -.2277740196240D+02 -.6529186135020D+02
  .1097263743600D+03 -.2794345122970D+01  .4255257782010D+00  .1272434137790D+00
  .5651359347570D-01 -.1838382842020D-01 -.2559089403830D-02  .1411292116160D-02
 -.3026580845410D-02  .1456344484830D-02
  .5162907107570D-01  .2694357994350D+02  .8665429067590D+02  .1623248994020D+03
 -.1922729166630D+03  .1302864980350D+02 -.2121409752720D+01 -.6415901552950D+00
 -.2859413906960D+00  .9357710048910D-01  .1345420155040D-01 -.7365919819660D-02
  .1530060250040D-01 -.7327248721660D-02
 -.2104582384520D+00 -.8769788056960D+02 -.1893668669720D+03 -.2523766892430D+03
  .2401718841240D+03 -.4604390191250D+02  .8500342964570D+01  .2625472600630D+01
  .1177317575080D+01 -.3892090768420D+00 -.5893362580230D-01  .3192189584000D-01
 -.6293796647460D-01  .2989370141430D-01
  .7398282931060D+00  .1743810106630D+03  .2734013923150D+03  .2902872576690D+03
 -.2424364435820D+03  .1219684377550D+03 -.2880510991090D+02 -.9274515034060D+01
 -.4206256615440D+01  .1414450365000D+01  .2320898508700D+00 -.1239255908820D+00
  .2247894789010D+00 -.1052651967490D+00
 -.2399592442660D+01 -.2381107839490D+03 -.3026349306370D+03 -.2783340358730D+03
  .2151633829160D+03 -.2255049330820D+03  .8490623388220D+02  .3017503223220D+02
  .1402085983770D+02 -.4862982259400D+01 -.9061062189820D+00  .4754094873480D+00
 -.7516365039950D+00  .3427290302570D+00
  .6841364151720D+01  .2534494472510D+03  .2852279245840D+03  .2411185610410D+03
 -.1783324771040D+03  .3034030804110D+03 -.1679699776760D+03 -.8408118242910D+02
 -.4179301286340D+02  .1539468079330D+02  .3474588882070D+01 -.1790725118280D+01
  .2278060687460D+01 -.9855319993110D+00
 -.1595631306850D+02 -.2274834264210D+03 -.2394238257680D+03 -.1928066914660D+03
  .1389985489440D+03 -.3195494268350D+03  .2283061584960D+03  .1549853011390D+03
  .1011634994390D+03 -.4207092942270D+02 -.1197080281880D+02  .6078894324880D+01
 -.5899759535790D+01  .2330242769440D+01
  .3028964563640D+02  .1800205826990D+03  .1826777464370D+03  .1430326999290D+03
 -.1015714411550D+03  .2799412386360D+03 -.2335074548610D+03 -.1938212188380D+03
 -.1665414184660D+03  .9322259095250D+02  .3379346179530D+02 -.1706284184970D+02
  .1285845373740D+02 -.4467211992190D+01
 -.4866443183040D+02 -.1268428141780D+03 -.1261245023100D+03 -.9713273469490D+02
  .6835496953020D+02 -.2099222870530D+03  .1915885836180D+03  .1787497072170D+03
  .1872436062040D+03 -.1394689747840D+03 -.7223951064730D+02  .3767669589710D+02
 -.2362230124370D+02  .7037923366610D+01
  .6701626955160D+02  .7778171635910D+02  .7644254498160D+02  .5829064281850D+02
 -.4079550688900D+02  .1336710083330D+03 -.1284423084160D+03 -.1274859736240D+03
 -.1505664792010D+03  .1370081262420D+03  .9624782651990D+02 -.6149631617040D+02
  .3530427477690D+02 -.8805294462120D+01
 -.7306081266140D+02 -.3903507916930D+02 -.3809869847280D+02 -.2887761095650D+02
  .2014222574670D+02 -.6862880232880D+02  .6788324182030D+02  .6924256194080D+02
  .8691506336420D+02 -.8933400227790D+02 -.7698746429840D+02  .6049273861270D+02
 -.3797923599060D+02  .7331357589870D+01
  .5224513255850D+02  .1411419230770D+02  .1371806902310D+02  .1035958071620D+02
 -.7210783203250D+01  .2515738756680D+02 -.2526431036530D+02 -.2587011516120D+02
 -.3320349347560D+02  .3667945692830D+02  .3570378207900D+02 -.3182730119490D+02
  .2180327757550D+02 -.1946055990740D+01
 -.1706192721360D+02 -.2700477665860D+01 -.2617916872460D+01 -.1972496275620D+01
  .1371180862660D+01 -.4853015564740D+01  .4906376660520D+01  .4968794994790D+01
  .6378799845210D+01 -.7386663558900D+01 -.7708641143700D+01  .7198842225850D+01
 -.4750467192650D+01 -.1648553230030D+01
  13  13
 -.1737638889460D+02 -.8542846757880D-08 -.1279202476940D-12  .2588456668260D-09
  .1337779439720D-04  .4756256760980D-03  .6549700421140D-02  .1120001684020D+00
  .5009322687730D+00  .1843794935720D+01  .7306401811300D+01  .2006696609110D+02
  .5998083284990D+02
  .1233434941440D+00  .1690541269910D+00  .2432901950250D+00  .3619553080980D+00
  .5384994863720D+00  .8154350337310D+00  .1234790953500D+01  .1869810145230D+01
  .2831402327080D+01  .4287515049730D+01  .6492466692500D+01  .9831364616640D+01
  .1488736635910D+02
 -.6769033731040D-02  .2013460526940D+01 -.3893129748270D+02  .1782940296620D+02
 -.1731370990160D+01 -.6915754670600D+00 -.6659377411300D-01  .2513834012710D-01
 -.2057864907390D-02 -.4186543624920D-02 -.4056950092020D-02  .3583943473450D-02
 -.6907823890520D-03
  .4334800824060D-01 -.1490421032420D+02  .1267054268050D+03 -.8756888728840D+02
  .1090088618080D+02  .4512101087250D+01  .4109630079660D+00 -.1582114886860D+00
  .1235836769570D-01  .2698022813140D-01  .2604682734420D-01 -.2306829758020D-01
  .4409789834400D-02
 -.1585696361880D+00  .5984773905260D+02 -.2030542376250D+03  .1944355310510D+03
 -.3859327674100D+02 -.1710683500870D+02 -.1386652079990D+01  .5570689270460D+00
 -.3872723191170D-01 -.1000422728360D+00 -.9580045110060D-01  .8528158637320D-01
 -.1602705608560D-01
  .4475947636870D+00 -.1330387502760D+03  .2369716735180D+03 -.2877426680430D+03
  .1019099628050D+03  .5201856026980D+02  .3138221551980D+01 -.1419270974550D+01
  .6282223300500D-01  .2920825404040D+00  .2740889295600D+00 -.2469136329160D+00
  .4453746014690D-01
 -.8865010217230D+00  .1893040348540D+03 -.2279176879100D+03  .3222934605970D+03
 -.1777187419650D+03 -.1221761515140D+03 -.1792566744870D+01  .1852163592940D+01
  .1729232154210D+00 -.6408188937590D+00 -.5661213990610D+00  .5274001417930D+00
 -.8395996574810D-01
  .9012527315040D+00 -.2039984224050D+03  .1926772545190D+03 -.3005865976730D+03
  .2237102631230D+03  .2151182636480D+03 -.2304864131680D+02  .4561389441590D+01
 -.2245692121780D+01  .1089694517390D+01  .7380466998110D+00 -.8008341940400D+00
  .5648216039910D-01
  .2788767708480D+00  .1872846371250D+03 -.1536143612750D+03  .2542006166790D+03
 -.2259438626300D+03 -.2892513218060D+03  .7448608504000D+02 -.3615357242950D+02
  .1241654707050D+02 -.2502372998740D+01 -.8279244745880D+00  .1467054250430D+01
  .2030116732370D+00
 -.4622850838770D+00 -.1508368076500D+03  .1139257120680D+03 -.1953190279150D+03
  .1919343195100D+03  .3061850075620D+03 -.1203879483600D+03  .8715691187270D+02
 -.4383922543830D+02  .1003141772720D+02  .3630577654430D+01 -.6098230041510D+01
 -.7231544967350D+00
 -.5342604675660D+01  .1073530733440D+03 -.7720380042470D+02  .1352411999250D+03
 -.1405152612400D+03 -.2626967651710D+03  .1309805871910D+03 -.1210176833530D+03
  .8236636369650D+02 -.3072780739170D+02 -.1437174558630D+02  .2128415026630D+02
  .1391455358590D+01
  .1390664552710D+02 -.6605767472660D+02  .4611401820490D+02 -.8185978439710D+02
  .8773239081810D+02  .1829390690890D+03 -.1052743561340D+03  .1138896951720D+03
 -.9304423732960D+02  .4628905201210D+02  .2980347320270D+02 -.4565920756500D+02
 -.2579897389510D+01
 -.1166673902680D+02  .3313746140870D+02 -.2271186928860D+02  .4065329902270D+02
 -.4433889172050D+02 -.9944047154990D+02  .6264829261060D+02 -.7507824152810D+02
  .6771698550560D+02 -.3869831160490D+02 -.3103258264880D+02  .5899155976120D+02
  .4318458595530D+01
  .2078133088090D-02 -.1198344337180D+02  .8119302073010D+01 -.1460961204930D+02
  .1609700119880D+02  .3787740881090D+02 -.2525799141430D+02  .3219449359610D+02
 -.3063436651420D+02  .1893737541930D+02  .1799635319080D+02 -.4201504556020D+02
 -.3876316605020D+01
  .3168688808130D+01  .2308505949950D+01 -.1552755371600D+01  .2803321379410D+01
 -.3108155174750D+01 -.7550826114750D+01  .5203939694270D+01 -.6839495418420D+01
  .6738392391050D+01 -.4509681313990D+01 -.5101812365980D+01  .1296273924450D+02
  .3668148878400D+00
  12  12
 -.6829952076280D+01 -.2097699068040D+01 -.1088106567240D+01 -.2191313637450D+00
 -.4374197028640D-01 -.7549909901360D-02 -.9956434717730D-03 -.5152953293920D-04
 -.6540108407500D-06 -.2865376613930D-08 -.3791672466230D-11  .1805847272900D+01
  .1809841933070D+00  .2352717965410D+00  .3268602583600D+00  .4658080528710D+00
  .6704195990480D+00  .9744986651910D+00  .1416497444000D+01  .2058971531240D+01
  .3022593369890D+01  .4437201069130D+01  .6513861084970D+01  .9562421349240D+01
  .6960830733780D-02  .4225892896910D-01  .6156639161880D-01  .8513944956900D-01
 -.1399844048430D+00  .3625159623110D+00 -.1023044438380D+01  .2512854640230D+01
  .7136791939930D+01  .2005760902370D+02  .4371912766350D+02  .8427436125420D-01
 -.3837927987610D-01 -.2357145354410D+00 -.3420713035560D+00 -.4729431432000D+00
  .7803535714120D+00 -.2020772557660D+01  .5643447455790D+01 -.1352565250610D+02
 -.3606440149010D+02 -.8710319141830D+02 -.1337422783520D+03 -.4667818847580D+00
  .1305217946360D+00  .8196287384770D+00  .1180699737140D+01  .1631869100500D+01
 -.2710977876290D+01  .7015471059200D+01 -.1917448744190D+02  .4366378415430D+02
  .1018565949680D+03  .1802597904630D+03  .2084591243070D+03  .1601447082240D+01
 -.3523343961720D+00 -.2303975751510D+01 -.3275523063310D+01 -.4525213866020D+01
  .7610672650940D+01 -.1963096607510D+02  .5133767850880D+02 -.1049979874880D+03
 -.1854300254910D+03 -.2501512152600D+03 -.2389066304010D+03 -.4393403865560D+01
  .7829709006840D+00  .5524902851730D+01  .7670123192280D+01  .1059014918640D+02
 -.1819867568480D+02  .4631700874050D+02 -.1096571974310D+03  .1747129258760D+03
  .2390724267270D+03  .2668820850630D+03  .2259644557930D+03  .1007174771090D+02
 -.1472860485970D+01 -.1202664284020D+02 -.1600337292650D+02 -.2205284964900D+02
  .3909726841920D+02 -.9406315871660D+02  .1723244449290D+03 -.2128604650450D+03
 -.2425737120470D+03 -.2397334791760D+03 -.1884616185940D+03 -.2018325206080D+02
  .2270108374720D+01  .2397894872700D+02  .2987647231850D+02  .4076636567580D+02
 -.7310079604880D+02  .1407423270550D+03 -.1991427967640D+03  .2030600882230D+03
  .2065616050740D+03  .1898407856580D+03  .1427793857730D+03  .3524209154980D+02
 -.2487302605320D+01 -.4137081713590D+02 -.4697239768460D+02 -.6137413279740D+02
  .9595977813560D+02 -.1480808471300D+03  .1727043004400D+03 -.1549881844630D+03
 -.1477466975980D+03 -.1301500961730D+03 -.9530262494910D+02 -.5026620441600D+02
  .1069597320260D+01  .5879461769210D+02  .5800146235240D+02  .6379053787490D+02
 -.8623257977340D+02  .1139600899680D+03 -.1165373602010D+03  .9653742822210D+02
  .8884017364720D+02  .7631129551460D+02  .5494682409400D+02  .5410411617350D+02
  .1890300082540D+01 -.6205437861880D+02 -.4888946330470D+02 -.4410933540180D+02
  .5441136314980D+02 -.6560091348370D+02  .6175364345390D+02 -.4883240657580D+02
 -.4415837038310D+02 -.3737691124170D+02 -.2663287790030D+02 -.3750998278310D+02
 -.3086882991580D+01  .4020530747370D+02  .2640931763960D+02  .1971874931990D+02
 -.2277111397620D+02  .2593589512490D+02 -.2313864619870D+02  .1778694473750D+02
  .1594184382600D+02  .1337494879880D+02  .9467514849750D+01  .1177279132980D+02
  .4023318441390D+00 -.1192178380620D+02 -.7398630341050D+01 -.4616390078500D+01
  .4926711041640D+01 -.5366322239310D+01  .4607436542210D+01 -.3470771370720D+01
 -.3094000010120D+01 -.2581550697110D+01 -.1819624148280D+01  .2275852744910D+00
Spectral Representation Operator
End Of Spectral Representation Operator
*
/Al.ECP.HW.3s3p.2s2p.3e-LANL2DZ.
Ref: W.R. Wadt and P.J. Hay, J. Chem. Phys. 82 (1985) 284
core [Ne], Valence [3s, 3p]
* Basis set taken from: http://www.emsl.pnl.gov:2080/forms/basisform.html
      3.0   1
 3    2
       0.9615
       0.1819
       0.0657
   -0.5021546    0.0000000
    1.2342547    0.0000000
    0.0000000    1.0000000
 3    2
       1.9280
       0.2013
       0.0580
   -0.0712584    0.0000000
    1.0162966    0.0000000
    0.0000000    1.0000000
M1
 0
M2
 0
COREREP
 1.0
PROJOP
 2
  15  15
 -.1747156738790D+03 -.6257707101180D-06 -.1476191951090D-08 -.8160545369490D-13
  .9039637159070D-12  .3554774484200D-04  .7009270411310D-02  .2154256171980D+00
  .1513109598710D+01  .4248832095780D+01  .5949071246350D+01  .1248953605980D+02
  .2747500216080D+02  .6418173434150D+02  .6560557262750D+03
  .8770646047920D-01  .1320536212970D+00  .2055419915070D+00  .3231064605420D+00
  .5079146313520D+00  .8063630935420D+00  .1280178593980D+01  .2032406053320D+01
  .3226639146280D+01  .5122598490240D+01  .8132615425090D+01  .1291130542020D+02
  .2049793319120D+02  .3254243095000D+02  .5166422401020D+02
  .1698257757910D-02  .7424715359450D+00  .3022814035020D+01  .3076315382130D+02
  .1373359323330D+02  .2921194086770D+00 -.4984168018440D-01 -.1441461679330D-01
  .6795936233800D-02  .6590169347700D-02 -.3407062754060D-02  .1233795370030D-02
 -.1257054267590D-02 -.1305879466380D-04 -.2085941021030D-03
 -.1385631415840D-01 -.5770528276780D+01 -.2177844074670D+02 -.1043769954920D+03
 -.7482811053230D+02 -.2298938723830D+01  .4043878170180D+00  .1175726727010D+00
 -.5547558837880D-01 -.5383518540880D-01  .2788302727190D-01 -.1003799497330D-01
  .1023337054670D-01  .9718511400160D-04  .1702641030640D-02
  .7027169943780D-01  .2653504114000D+02  .8476330912660D+02  .1793353286520D+03
  .1803096709670D+03  .1090422914460D+02 -.2029519920180D+01 -.5958661443380D+00
  .2815695283120D+00  .2735945114320D+00 -.1421530917370D+00  .5065114827050D-01
 -.5169109609180D-01 -.4088428609250D-03 -.8641141407030D-02
 -.2901848309120D+00 -.8854470622080D+02 -.1883550631700D+03 -.2207080716350D+03
 -.2775206389080D+03 -.3971745990550D+02  .8217075309420D+01  .2457050346980D+01
 -.1164227586590D+01 -.1133753759440D+01  .5922302944040D+00 -.2073443759480D+00
  .2119776089400D+00  .1086341102360D-02  .3572875153650D-01
  .1039293356870D+01  .1809727243870D+03  .2759822838760D+03  .2211576692680D+03
  .3194215740320D+03  .1108390969350D+03 -.2827245329950D+02 -.8769546171790D+01
  .4177752237700D+01  .4084169072420D+01 -.2152827293190D+01  .7312654863580D+00
 -.7498820534560D+00 -.8727698262010D-04 -.1282533478800D+00
 -.3455129033090D+01 -.2549423305200D+03 -.3105568448280D+03 -.1965077660340D+03
 -.3087637223180D+03 -.2139445969540D+03  .8505174386570D+02  .2885978227570D+02
 -.1392689644440D+02 -.1371887180310D+02  .7352749084920D+01 -.2358738991950D+01
  .2432755700550D+01 -.2441338760660D-01  .4283022102570D+00
  .1006387294390D+02  .2810163386260D+03  .2988632619150D+03  .1646551273900D+03
  .2717176500790D+03  .2982711200510D+03 -.1714691525020D+03 -.8064008083450D+02
  .4062452442540D+02  .4074426787100D+02 -.2257625572530D+02  .6419560182350D+01
 -.6706182335060D+01  .2272284116050D+00 -.1259785909540D+01
 -.2327478130470D+02 -.2627684174500D+03 -.2583665511490D+03 -.1313406105770D+03
 -.2230459323050D+03 -.3261401680840D+03  .2387329047860D+03  .1468692541150D+03
 -.9174226985780D+02 -.9715498537360D+02  .5746662831960D+02 -.1261421673140D+02
  .1363020083010D+02 -.1290874239800D+01  .2972027076160D+01
  .4119948267720D+02  .2192207448140D+03  .2061076929470D+03  .9995182253910D+02
  .1726519986310D+03  .3000675202200D+03 -.2535860607380D+03 -.1813728588290D+03
  .1364245933450D+03  .1756550768000D+03 -.1174557937310D+03  .1423931824110D+02
 -.1739695486780D+02  .4962267019460D+01 -.5450274185580D+01
 -.5700300841020D+02 -.1665697158360D+03 -.1526132189890D+03 -.7196453691350D+02
 -.1255872393360D+03 -.2419401346590D+03  .2217367213650D+03  .1688654497680D+03
 -.1389698091740D+03 -.2289999174090D+03  .1913697073040D+03  .1734295908720D+01
  .6247481641040D+01 -.1378512543370D+02  .7958160373830D+01
  .6585011275170D+02  .1146952345680D+03  .1035018967440D+03  .4798788669120D+02
  .8426881039280D+02  .1726568921040D+03 -.1656409607000D+03 -.1285980540390D+03
  .1078294060160D+03  .2204703140620D+03 -.2334054427890D+03 -.3985237314570D+02
  .2640784513830D+02  .2885198183560D+02 -.9712095357820D+01
 -.6963784253550D+02 -.6939715909080D+02 -.6205806943360D+02 -.2847744551270D+02
 -.5019953158240D+02 -.1067589771950D+03  .1052256327740D+03  .8232957388170D+02
 -.6880677151690D+02 -.1628805903430D+03  .2048198994720D+03  .6697101558390D+02
 -.6470568631680D+02 -.4524587723820D+02  .1008096599830D+02
  .6718096116430D+02  .3455018085420D+02  .3072641879040D+02  .1401068606990D+02
  .2475627854350D+02  .5386212373960D+02 -.5397327353740D+02 -.4244293653010D+02
  .3525160602480D+02  .9034126856720D+02 -.1257277863560D+03 -.5646783039460D+02
  .6994909509710D+02  .4901473747140D+02 -.7726715518980D+01
 -.4737516480830D+02 -.1243198030060D+02 -.1101878813620D+02 -.5004700063070D+01
 -.8856066381780D+01 -.1953908239580D+02  .1976608290320D+02  .1549171471570D+02
 -.1252182297260D+02 -.3337794270770D+02  .4979202708480D+02  .2710260178630D+02
 -.3916589069190D+02 -.2901549928470D+02  .2186520658980D+01
  .1580517782400D+02  .2371483581380D+01  .2097523879950D+01  .9503738259390D+00
  .1683267467440D+01  .3745608966720D+01 -.3806183096460D+01 -.2938535573060D+01
  .2229428069990D+01  .6088271434910D+01 -.9757345048200D+01 -.6176924847940D+01
  .9585247415270D+01  .6881956367710D+01  .1518554905630D+01
  16  16
 -.7164316434330D+02 -.2720180038210D+02  .9608630627710D-11  .6461743030320D-08
  .1276009354260D-05  .1027858310940D-03  .3197221587610D-02  .2816170225690D-01
  .9701338277290D-01  .3049090345810D+00  .9118203580490D+00  .2455003078890D+01
  .6542028294030D+01  .2090429671820D+02  .5314188914710D+02  .1328069810300D+03
  .8155182683420D-01  .1117746256960D+00  .1608577735930D+00  .2393163645360D+00
  .3560432365540D+00  .5391465283750D+00  .8164148317270D+00  .1236274634790D+01
  .1872056843190D+01  .2834804440320D+01  .4292666776690D+01  .6500267811640D+01
  .9843177637850D+01  .1490525449380D+02  .2257061893000D+02  .3417807049840D+02
  .5891571101420D+01  .2733469970110D+01 -.2511120436710D+02 -.2405616069360D+02
  .1831758418580D+02  .1245755345110D+02  .7200560406000D+01  .3345124480320D+01
  .1069186500210D+01 -.1483682610920D+01  .3952207134410D+01  .3657398524910D+01
 -.2575255114470D+01 -.1655136873490D+01  .6421972898300D+01  .1621879713690D+01
 -.2610687123700D+02 -.1210396747580D+02  .6775810743520D+02  .8922172553320D+02
 -.7633094180560D+02 -.5405525882620D+02 -.3161312042190D+02 -.1470713039280D+02
 -.4674264675900D+01  .6601772314090D+01 -.1752070260030D+02 -.1620759315430D+02
  .1141245636940D+02  .7335473762870D+01 -.2845486402700D+02 -.7187270132800D+01
  .6173011805120D+02  .2857603266990D+02 -.8447396318920D+02 -.1475076666470D+03
  .1582224718630D+03  .1221025445970D+03  .7325576463800D+02  .3418415537100D+02
  .1072680255720D+02 -.1575028202350D+02  .4146738637090D+02  .3832767849000D+02
 -.2698973827920D+02 -.1735093744960D+02  .6727007971100D+02  .1699624068640D+02
 -.1130685064850D+03 -.5216188300940D+02  .7304005112400D+02  .1586441849880D+03
 -.2176679986520D+03 -.2014127342020D+03 -.1281062674000D+03 -.6018818595170D+02
 -.1830105474410D+02  .2943472945340D+02 -.7612103971430D+02 -.7022400067100D+02
  .4945636042520D+02  .3180611018950D+02 -.1231670320350D+03 -.3113879825370D+02
  .1722299275000D+03  .7887863278830D+02 -.5209560645150D+02 -.1295526275960D+03
  .2163402182500D+03  .2441662962720D+03  .1759575818820D+03  .8385064047830D+02
  .2346174765700D+02 -.4678756467150D+02  .1165211518740D+03  .1070470779360D+03
 -.7540362345880D+02 -.4853018906210D+02  .1874547694990D+03  .4745593880050D+02
 -.2313209161010D+03 -.1042757011430D+03  .3336895060630D+02  .8892002568200D+02
 -.1707670132750D+03 -.2274347484850D+03 -.1847211552810D+03 -.8989850196290D+02
 -.1824840352080D+02  .6889572791330D+02 -.1583541877190D+03 -.1440787935390D+03
  .1015037568960D+03  .6542633811500D+02 -.2513070102610D+03 -.6380908184430D+02
  .2801090317170D+03  .1223628870890D+03 -.2150622572680D+02 -.5831433614670D+02
  .1214595297770D+03  .1800261499070D+03  .1508184259080D+03  .5819864342150D+02
 -.1061128286330D+02 -.9935761100040D+02  .1970073854050D+03  .1755182168530D+03
 -.1235746643750D+03 -.7984121907390D+02  .3031958216310D+03  .7744016366310D+02
 -.2979078731200D+03 -.1223649151360D+03  .1406016088150D+02  .3767044088940D+02
 -.8166740652400D+02 -.1285179061230D+03 -.9938373216150D+02  .2625293104470D+01
  .7558031329890D+02  .1419611826860D+03 -.2228534932640D+03 -.1898772637720D+03
  .1331534472620D+03  .8626845689820D+02 -.3201550753890D+03 -.8272502759070D+02
  .2753029192230D+03  .9881458822360D+02 -.9334200060500D+01 -.2440867093520D+02
  .5379212319790D+02  .8749849095460D+02  .5750635787220D+02 -.5353861985840D+02
 -.1523371920320D+03 -.2022931025590D+03  .2370938837860D+03  .1842223270470D+03
 -.1272483012950D+03 -.8252171249710D+02  .2914910034370D+03  .7716965652080D+02
 -.2182356958440D+03 -.5276123002670D+02  .6223858542300D+01  .1585560546440D+02
 -.3511914163820D+02 -.5836808666440D+02 -.3192222595050D+02  .7298210864980D+02
  .1958702749010D+03  .2580766562580D+03 -.2529283525350D+03 -.1677774458790D+03
  .1105296213240D+03  .7104306014150D+02 -.2233165820800D+03 -.6259467329700D+02
  .1459194972310D+03 -.8682336626760D+01 -.4079227295270D+01 -.1015730826750D+02
  .2250671949400D+02  .3803433410840D+02  .1795787783660D+02 -.6682519381930D+02
 -.1890207631860D+03 -.2703054549370D+03  .2609079686540D+03  .1585774491920D+03
 -.9422685680630D+02 -.5813911249090D+02  .1373475118040D+03  .4458829923080D+02
 -.8234497946900D+02  .7105558085120D+02  .2543562675610D+01  .6221193459250D+01
 -.1377043362160D+02 -.2359199429770D+02 -.1024766047560D+02  .4899187644480D+02
  .1469094816620D+03  .2279852502230D+03 -.2332521218900D+03 -.1486699629220D+03
  .8768019831820D+02  .4991500408650D+02 -.6431061192030D+02 -.2989050694280D+02
  .4029618769540D+02 -.1106177197480D+03 -.1437685979340D+01 -.3470751820890D+01
  .7673785160280D+01  .1330170063290D+02  .5673631785840D+01 -.2963969434690D+02
 -.9343558411490D+02 -.1540158932030D+03  .1675041774410D+03  .1166138562710D+03
 -.7531031013610D+02 -.4395978575320D+02  .2684045461290D+02  .2109870002280D+02
 -.1417839747750D+02  .1041369571500D+03  .6828862123180D+00  .1633649461800D+01
 -.3609487271560D+01 -.6321826681660D+01 -.2785674515970D+01  .1424973735180D+02
  .4694455572740D+02  .8061086846240D+02 -.9154488679060D+02 -.6811856131990D+02
  .4725147304950D+02  .2855327580480D+02 -.2008031993750D+02 -.1430313107030D+02
 -.1583283277140D+01 -.5827393501000D+02 -.2384241941300D+00 -.5668834669610D+00
  .1252166078940D+01  .2212657448970D+01  .1029785908980D+01 -.4891360719460D+01
 -.1676093567120D+02 -.2959626251610D+02  .3457768202450D+02  .2683021243670D+02
 -.1920704676040D+02 -.1130610337540D+02  .1769514738380D+02  .6987578008810D+01
  .3546638266090D+01  .1484752519920D+02  .4490161556040D-01  .1063240315230D+00
 -.2348319939250D+00 -.4177544845660D+00 -.2040511377370D+00  .9003657382130D+00
  .3183865578960D+01  .5733293374470D+01 -.6839645455390D+01 -.5480326288400D+01
  .4036124950750D+01  .2422564708640D+01 -.7003915794250D+01 -.2665401193360D+01
  13  13
 -.1149588043730D+02 -.4179284627990D+01 -.1937629648900D+01 -.4764461168470D+00
 -.1987290517980D+00 -.9114777285940D-01 -.1243984818660D-01 -.5863315809380D-03
 -.7474255368390D-05 -.1375311797130D-06 -.3263604011200D-08 -.3869504062230D-11
  .2149098396940D+01
  .2386239298200D+00  .3102010161250D+00  .4309585159160D+00  .6141583200540D+00
  .8839344278070D+00  .1284856411180D+01  .1867622693960D+01  .2714711540240D+01
  .3985227079740D+01  .5850358184150D+01  .8588391626880D+01  .1260785552180D+02
  .1850847373580D+02
 -.1112371807230D-03 -.7782887908480D-03  .1467594573720D-02 -.1904572854380D-02
 -.4928611295850D-02  .5622430843300D-02  .1012334416780D-01  .2691477935190D-01
 -.1029115346120D+00  .6835612541810D+01  .2007960518600D+02  .4453051819550D+02
  .3000105742180D-02
 -.2550930629240D-03 -.3886425183870D-03  .1317959697550D-02 -.1508028429090D-02
 -.1146100910770D-01  .8502367900820D-02  .1513852647400D-01  .6135995031660D-01
  .1452085556720D+01 -.3568517094820D+02 -.8857557332970D+02 -.1372343045370D+03
  .3758214351920D-02
  .6759768648940D-02  .3248766686750D-01 -.6746217951080D-01  .8535830371000D-01
  .3015853835210D+00 -.2951033550480D+00 -.5282563985970D+00 -.1600377672510D+01
 -.1036071762440D+02  .1068309343250D+03  .1871635569300D+03  .2163260051780D+03
 -.1492334382350D+00
 -.4791430797890D-01 -.2384857642290D+00  .4901845440440D+00 -.6214791083310D+00
 -.2138800050320D+01  .2116696721390D+01  .3774959214890D+01  .1095703215410D+02
  .4856883246720D+02 -.2114946054190D+03 -.2666210695010D+03 -.2518387144300D+03
  .1076372582660D+01
  .2218345532020D+00  .1061556515340D+01 -.2206761222200D+01  .2787921966370D+01
  .9906489460000D+01 -.9646267007990D+01 -.1700576792060D+02 -.4589185304570D+02
 -.1170747880160D+03  .3011172809900D+03  .2939168655270D+03  .2434908700900D+03
 -.4889725120500D+01
 -.7476465883890D+00 -.3142506738910D+01  .6797418908510D+01 -.8492500018130D+01
 -.3327441126550D+02  .3084837179030D+02  .5198886515650D+02  .1023584031510D+03
  .1830109119520D+03 -.3406457403740D+03 -.2754845498910D+03 -.2097638299750D+03
  .1551733198070D+02
  .1844737842920D+01  .5663877275720D+01 -.1369464792790D+02  .1659845382600D+02
  .8043364498640D+02 -.6670277371640D+02 -.9237848568760D+02 -.1464546434810D+03
 -.2129503153640D+03  .3252274105650D+03  .2308480364220D+03  .1667397035390D+03
 -.3369292598100D+02
 -.3451458126720D+01 -.4223577913630D+01  .1622139719280D+02 -.1775119311200D+02
 -.1394176445730D+03  .9004908896440D+02  .1063905396570D+03  .1511753505160D+03
  .1953555397930D+03 -.2638080237760D+03 -.1713340389860D+03 -.1196852765210D+03
  .4918802828800D+02
  .5486031359100D+01 -.6762863768670D+01 -.6007754447720D+01  .1827521968930D+01
  .1775549242190D+03 -.8459261822560D+02 -.9076384230730D+02 -.1232303278970D+03
 -.1486719824780D+03  .1854922908890D+03  .1133325477570D+03  .7745436147810D+02
 -.4908066552160D+02
 -.7923579719610D+01  .2609715818380D+02 -.1423138186480D+02  .1579440164050D+02
 -.1672958697060D+03  .6168457810410D+02  .6229377872210D+02  .8302305060990D+02
  .9620786196730D+02 -.1141913006130D+03 -.6700671592310D+02 -.4515624243350D+02
  .3441815321270D+02
  .9653826549160D+01 -.3910710092760D+02  .2395449153780D+02 -.1845865654670D+02
  .1119960540300D+03 -.3478732889890D+02 -.3358058788270D+02 -.4424212132800D+02
 -.4999980721390D+02  .5748406012130D+02  .3284535470910D+02  .2193505056300D+02
 -.2037181649500D+02
 -.7634684076300D+01  .2922013299340D+02 -.1721400994090D+02  .1062796786520D+02
 -.4818040929640D+02  .1337053433080D+02  .1271349092710D+02  .1669795212820D+02
  .1858200173560D+02 -.2092968636680D+02 -.1175124498330D+02 -.7801738117290D+01
  .1342910041280D+02
  .1748478862240D+01 -.9194858126150D+01  .5642540608620D+01 -.2952445680380D+01
  .1006087020440D+02 -.2517923633520D+01 -.2499283139580D+01 -.3329509291780D+01
 -.3675449295430D+01  .4085537046150D+01  .2267585636900D+01  .1499683422180D+01
 -.5830333229900D+01
Spectral Representation Operator
End Of Spectral Representation Operator
*
/Si.ECP.HW.3s3p.2s2p.4e-LANL2DZ.
Ref: W.R. Wadt and P.J. Hay, J. Chem. Phys. 82 (1985) 284
core [Ne], Valence [3s, 3p]
* Basis set taken from: http://www.emsl.pnl.gov:2080/forms/basisform.html
      4.0   1
 3    2
       1.2220
       0.2595
       0.0931
   -0.5707339    0.0000000
    1.2823826    0.0000000
    0.0000000    1.0000000
 3    2
       2.5800
       0.2984
       0.0885
   -0.0777250    0.0000000
    1.0197870    0.0000000
    0.0000000    1.0000000
M1
 0
M2
 0
COREREP
 1.0
PROJOP
 2
  16  16
 -.3599341893780D+03  .1704987308700D-13  .4218549643540D-10  .2676986990060D-07
  .1105147737570D-05  .4181992725300D-04  .4632276017770D-02  .1608329516450D+00
  .1388920025900D+01  .4619109436230D+01  .9518672108710D+01  .1277607034540D+02
  .2830137632330D+02  .8730407676650D+02  .2699950090330D+03  .1097684771760D+04
  .9982781981110D-01  .1503039233400D+00  .2339486598780D+00  .3677609761760D+00
  .5781103241540D+00  .9178054748150D+00  .1457104041230D+01  .2313292135670D+01
  .3672572687690D+01  .5830560670840D+01  .9256573151090D+01  .1469569589250D+02
  .2333082386330D+02  .3703991604880D+02  .5880441209220D+02  .9335763280210D+02
 -.6403605253360D-03 -.2446138636750D+02  .1973653021260D+02  .1146012295630D+02
 -.5419713098330D+01  .2019459621440D+00  .1414725719150D-01  .4820296249460D-02
 -.2055949746720D-02 -.1308406647030D-02  .1613985469980D-02 -.3564570301410D-03
 -.3487524878670D-03 -.4021021285880D-03 -.5106743560820D-03 -.9591388498990D-04
 -.4650917859400D-03  .7385640538560D+02 -.8553438859980D+02 -.5838316449540D+02
  .3022402507850D+02 -.1653167237140D+01  .3549258708490D-01  .4972950510990D-02
 -.1930385579150D-02 -.1222307015530D-02  .1682793019580D-02 -.5406711514290D-03
 -.2155863873600D-03 -.2755975915170D-03 -.3140289486880D-03 -.7272481927670D-04
  .2683586824560D-01 -.1108659050910D+03  .1695098841120D+03  .1531051671270D+03
 -.9356216784570D+02  .8208869213440D+01 -.8196790515510D+00 -.2158860516890D+00
  .9047417842690D-01  .5754599709040D-01 -.7275148194370D-01  .1776333163200D-01
  .1423689500240D-01  .1668678499640D-01  .2083562039610D-01  .4049843733470D-02
 -.1851951022600D+00  .1201688713940D+03 -.2189886964940D+03 -.2567081214180D+03
  .2088911375050D+03 -.3169942539310D+02  .5243146553320D+01  .1471023594220D+01
 -.6204528386780D+00 -.3949459643950D+00  .4981284690270D+00 -.1204404807270D+00
 -.9853302898820D-01 -.1152851602910D+00 -.1442531061930D+00 -.2792217359980D-01
  .8462626214860D+00 -.1091391344850D+03  .2175135783950D+03  .3070632902470D+03
 -.3398924642040D+03  .9611989112580D+02 -.2265787922630D+02 -.6689161037750D+01
  .2840083160100D+01  .1809970915500D+01 -.2287395023090D+01  .5567281130730D+00
  .4493699395540D+00  .5264524271670D+00  .6580912545930D+00  .1276451783550D+00
 -.3231711428910D+01  .9079319279900D+02 -.1878838060360D+03 -.2969217178930D+03
  .4292621670100D+03 -.1968437314860D+03  .7781080935780D+02  .2536138989370D+02
 -.1091983160090D+02 -.6977324912220D+01  .8868779992870D+01 -.2201496874830D+01
 -.1705640232470D+01 -.2006037218240D+01 -.2498749856210D+01 -.4881924659520D+00
  .1030419204780D+02 -.7339834644500D+02  .1538599592550D+03  .2577234325400D+03
 -.4537750094620D+03  .2861512700240D+03 -.1673311365040D+03 -.7813238667450D+02
  .3525706710170D+02  .2271042566430D+02 -.2924837891760D+02  .7570532741660D+01
  .5361226462300D+01  .6362961630810D+01  .7856794478520D+01  .1562322360560D+01
 -.2549748187860D+02  .5784686396010D+02 -.1217656582360D+03 -.2098304641120D+03
  .4219853025460D+03 -.3244952573760D+03  .2437948551230D+03  .1521769405960D+03
 -.8730938552570D+02 -.5830520757900D+02  .7740935751220D+02 -.2167732506990D+02
 -.1283348833430D+02 -.1555562711980D+02 -.1882103814820D+02 -.3897630618560D+01
  .4698954162230D+02 -.4441764773070D+02  .9363330877360D+02  .1636699287890D+03
 -.3583725539820D+03  .3106009620520D+03 -.2709001831200D+03 -.2000340763850D+03
  .1399806459290D+03  .1115702422270D+03 -.1600011139510D+03  .5099019169680D+02
  .2182859333340D+02  .2785842597490D+02  .3216097735520D+02  .7305137549520D+01
 -.6345108012230D+02  .3301394432990D+02 -.6963607572440D+02 -.1226678673810D+03
  .2832370675110D+03 -.2635850825100D+03  .2502498297300D+03  .1994350345740D+03
 -.1526070872590D+03 -.1452664368120D+03  .2574085271040D+03 -.9970333142610D+02
 -.2349940410920D+02 -.3491092153310D+02 -.3540051449580D+02 -.1022256364070D+02
  .6082662257510D+02 -.2342451447270D+02  .4942387994310D+02  .8745287429430D+02
 -.2086738869770D+03  .2026051993130D+03 -.2017678172270D+03 -.1651494142170D+03
  .1272071497210D+03  .1345063842580D+03 -.3178293567040D+03  .1614030278620D+03
  .7181022289770D+01  .2622008142370D+02  .1288185833400D+02  .1064972871390D+02
 -.3826121761440D+02  .1547882552440D+02 -.3266445344640D+02 -.5795295192950D+02
  .1411248219290D+03 -.1405671201760D+03  .1439649194870D+03  .1192329437210D+03
 -.9068139704510D+02 -.1004545714770D+03  .3062998842550D+03 -.1959436779430D+03
  .2464379356410D+02 -.1116696712200D+01  .3771349105390D+02 -.8301216346770D+01
  .1565728667800D+02 -.9133859806880D+01  .1927671630330D+02  .3425635314010D+02
 -.8447828273390D+02  .8547047050710D+02 -.8910418688960D+02 -.7486762028260D+02
  .5791876125260D+02  .6668861412120D+02 -.2342234983810D+03  .1692372747060D+03
 -.4061324448060D+02 -.2263823188800D+02 -.9057384004740D+02  .5333204670070D+01
 -.1230970257600D+02  .4478020387860D+01 -.9451254301490D+01 -.1681247430330D+02
  .4178656378110D+02 -.4268839286750D+02  .4503073561960D+02  .3849383154450D+02
 -.3102164107080D+02 -.3734473606220D+02  .1366540793210D+03 -.1022143776890D+03
  .2921215607940D+02  .2357146976520D+02  .1032281866680D+03 -.3223246650260D+01
  .1624449179800D+02 -.1596076737180D+01  .3368776402680D+01  .5996293319580D+01
 -.1497625031600D+02  .1539140799770D+02 -.1635773510050D+02 -.1415755893150D+02
  .1176038099030D+02  .1456768054760D+02 -.5369700650580D+02  .4041806577360D+02
 -.1215764364320D+02 -.1199954379260D+02 -.6436740101720D+02  .4476966038530D+00
 -.8063813982680D+01  .3026754977900D+00 -.6388590419390D+00 -.1137584878480D+01
  .2849841581610D+01 -.2939629720980D+01  .3137198757010D+01  .2724082698360D+01
 -.2268064670660D+01 -.2815373933590D+01  .1052710520890D+02 -.8060199867340D+01
  .2663923279520D+01  .3244479323990D+01  .1758489039550D+02  .1639625210410D+01
  15  15
 -.6688272315020D+02  .7301499019160D-14  .2935048804220D-10  .2041278863710D-07
  .5052346840280D-05  .5264309635870D-03  .2161327028610D-01  .2874228701660D+00
  .1441777752510D+01  .4421908121200D+01  .6545362121410D+01  .1170214717020D+02
  .2608540767850D+02  .5736667568040D+02  .2950993817810D+03
  .1928336288560D+00  .2642970430430D+00  .3803567549090D+00  .5658762631030D+00
  .8418831557740D+00  .1274840620840D+01  .1930456260340D+01  .2923237079330D+01
  .4426577901590D+01  .6703045762990D+01  .1015023873960D+02  .1537022871610D+02
  .2327471666870D+02  .3524426643320D+02  .5336942804060D+02
 -.1049005005730D-01  .3971252130680D+02  .1658433003780D+02  .5162129669850D+01
  .1348287173690D+01  .3275834507330D+00 -.9213837098740D-01 -.3549500545210D-01
  .1870144263110D-01 -.1458444304340D-01  .2291162913770D-01  .7604654947240D-02
 -.5343035369790D-02  .1810321995150D-03  .9846053257220D-03
  .7259201408770D-01 -.1304762337740D+03 -.8229741275200D+02 -.3086034663350D+02
 -.8823131272620D+01 -.2231226817010D+01  .6355259508230D+00  .2454458450700D+00
 -.1293683063320D+00  .1009118500910D+00 -.1588004960200D+00 -.5256371267460D-01
  .3691466261940D-01 -.1280305056020D-02 -.6818275937930D-02
 -.3045789368480D+00  .2118497067530D+03  .1811033011270D+03  .9742956405660D+02
  .3326696132550D+02  .9084849323480D+01 -.2650201324000D+01 -.1028411724410D+01
  .5424380995800D+00 -.4232944054760D+00  .6681118516800D+00  .2200926951320D+00
 -.1544435592160D+00  .5576120211010D-02  .2864299058300D-01
  .1103195037510D+01 -.2516474825550D+03 -.2649958177500D+03 -.1956418455200D+03
 -.9661399607090D+02 -.3096452839760D+02  .9482116450510D+01  .3714886890910D+01
 -.1962262957500D+01  .1532419663790D+01 -.2431429392130D+01 -.7942574996670D+00
  .5565349471460D+00 -.2152244457220D-01 -.1039744233190D+00
 -.3456654387510D+01  .2476993003850D+03  .2963695967000D+03  .2719038354010D+03
  .1848464343520D+03  .8498731118950D+02 -.2894812212450D+02 -.1157572175730D+02
  .6133576643820D+01 -.4796765791490D+01  .7679126896820D+01  .2472653051960D+01
 -.1728083005560D+01  .7470840449310D-01  .3270421042910D+00
  .9975590161060D+01 -.2166091274230D+03 -.2807539659630D+03 -.2980041263330D+03
 -.2563750339230D+03 -.1639137659410D+03  .7754801861350D+02  .3291342854800D+02
 -.1759905196680D+02  .1380964640410D+02 -.2249451225710D+02 -.7043208206860D+01
  .4896104312510D+01 -.2576287989170D+00 -.9510900557060D+00
 -.2484475300090D+02  .1815809545410D+03  .2467731759530D+03  .2865002931630D+03
  .2872015244260D+03  .2304274411690D+03 -.1445455715840D+03 -.7777100547590D+02
  .4309158650470D+02 -.3416158030530D+02  .5759875567790D+02  .1706351629680D+02
 -.1172981408160D+02  .8541988670640D+00  .2405259664690D+01
  .4969183085600D+02 -.1453954077890D+03 -.2032892734270D+03 -.2492008652080D+03
 -.2748426603440D+03 -.2545746867060D+03  .1908896984900D+03  .1245153300160D+03
 -.8106833383600D+02  .6682471224850D+02 -.1206950319820D+03 -.3212608128640D+02
  .2158226417720D+02 -.2548091847810D+01 -.4951315326520D+01
 -.7812181557400D+02  .1109873831020D+03  .1578914138900D+03  .2000494388370D+03
  .2339449385430D+03  .2363951276800D+03 -.1953166882600D+03 -.1392970281290D+03
  .1023396404540D+03 -.9755610125240D+02  .2028793142510D+03  .4381409574910D+02
 -.2797018165020D+02  .6568286249100D+01  .8192770056990D+01
  .9724257553980D+02 -.7994949873090D+02 -.1149632011950D+03 -.1486423085170D+03
 -.1801767859950D+03 -.1917547871050D+03  .1660602549450D+03  .1193847989680D+03
 -.8831962986880D+02  .9726251601270D+02 -.2727011067290D+03 -.3707961148760D+02
  .1985676383860D+02 -.1436392892120D+02 -.1111747426360D+02
 -.9870812963530D+02  .5316485349840D+02  .7696410162420D+02  .1007726449610D+03
  .1248871000240D+03  .1371192980360D+03 -.1213821547150D+03 -.8464949285520D+02
  .5679868280510D+02 -.6651251860400D+02  .2891227998840D+03  .5274967582850D+01
  .8443612412920D+01  .2618664363500D+02  .1283994648240D+02
  .8672236087450D+02 -.3137153468330D+02 -.4560856571990D+02 -.6019171882890D+02
 -.7563423398300D+02 -.8464921303770D+02  .7580201858000D+02  .5111706847350D+02
 -.2965757933430D+02  .3315006204670D+02 -.2349719615690D+03  .2483526840780D+02
 -.4337581196730D+02 -.3813250047590D+02 -.1293269666360D+02
 -.6858220324870D+02  .1533067353030D+02  .2234844200340D+02  .2964237821820D+02
  .3757353556900D+02  .4255930053410D+02 -.3836515102780D+02 -.2518328383610D+02
  .1254958882780D+02 -.1194171620700D+02  .1384246456760D+03 -.2938151467520D+02
  .5235074273700D+02  .3997874284390D+02  .1051809827400D+02
  .4257520973010D+02 -.5453121195220D+01 -.7963105194890D+01 -.1059579201160D+02
 -.1350518690510D+02 -.1541116399460D+02  .1392624284600D+02  .8862361062080D+01
 -.3611575099320D+01  .2185094381810D+01 -.5273623969470D+02  .1664659912240D+02
 -.3121839326990D+02 -.2328914357720D+02 -.4852237185200D+01
 -.1364061503290D+02  .1039500974240D+01  .1519652076570D+01  .2026191841690D+01
  .2591583061640D+01  .2970368452750D+01 -.2679595462000D+01 -.1629749375580D+01
  .4572044960230D+00  .1396135460150D+00  .9783967727610D+01 -.4355289688870D+01
  .8162896194810D+01  .5517658562860D+01 -.2881778505920D+00
  14  14
 -.2364749336210D+02 -.1550568437020D+02 -.9911055692940D+01 -.4307414639220D+01
 -.1466957629190D+01 -.4542271336000D+00 -.1200297586420D+00 -.1784063890530D-01
 -.9749592363780D-03 -.1917062176460D-04 -.2394984810320D-06 -.1975541819890D-08
 -.3093659002530D-11  .1465639767830D+02
  .3612417857270D+00  .4695990426600D+00  .6524082642560D+00  .9297460167670D+00
  .1338147651020D+01  .1945084990960D+01  .2827308047180D+01  .4109676868000D+01
  .6033051873290D+01  .8856588017720D+01  .1300157084060D+02  .1908645225280D+02
  .2801912661680D+02  .4113239306960D+02
 -.1781405729280D-02  .2711138354210D-01  .1303642333500D-01  .7306806197840D-02
  .1641238111370D-01  .2494427587240D-01 -.4109904025150D-01 -.8861844997660D-01
  .2679908195420D+00  .1201253638040D+01 -.6028680546830D+01  .2002788809360D+02
 -.4510523341850D+02 -.3151107984640D-01
  .1109762309180D-01 -.1684043466350D+00 -.8091495030750D-01 -.4542664977290D-01
 -.1019715390660D+00 -.1549396102560D+00  .2551724196660D+00  .5494324476670D+00
 -.1648533445000D+01 -.7109018260280D+01  .3211722514920D+02 -.8937801307300D+02
  .1397379717070D+03  .1957198512190D+00
 -.4616226671740D-01  .6999266161160D+00  .3362865737560D+00  .1887524427570D+00
  .4236715450360D+00  .6435726318940D+00 -.1059233730860D+01 -.2274717295870D+01
  .6721936731850D+01  .2690555237010D+02 -.9872935885380D+02  .1916297806490D+03
 -.2220412804070D+03 -.8133503474410D+00
  .1654546376260D+00 -.2528727599520D+01 -.1218251994170D+01 -.6790017463350D+00
 -.1527311073010D+01 -.2320029782490D+01  .3815279304550D+01  .8152172950160D+01
 -.2337176101810D+02 -.8073864922010D+02  .1965938006240D+03 -.2776011124580D+03
  .2613446699480D+03  .2937891026490D+01
 -.5180815473690D+00  .8158902476580D+01  .3967108014820D+01  .2160619232040D+01
  .4896152963540D+01  .7442006225380D+01 -.1221952574320D+02 -.2578874581030D+02
  .6850120923130D+02  .1619163943400D+03 -.2785642900740D+03  .3120492303900D+03
 -.2565196232720D+03 -.9476246231590D+01
  .1349549031550D+01 -.2299238884030D+02 -.1142861344430D+02 -.5886814293730D+01
 -.1358767833130D+02 -.2067541988950D+02  .3373119368250D+02  .6803768213390D+02
 -.1356883941220D+03 -.2334449723910D+03  .3140525825050D+03 -.2997810722640D+03
  .2258448368750D+03  .2669726026190D+02
 -.2573912813130D+01  .5230692806400D+02  .2709812203090D+02  .1250574446470D+02
  .2995107922410D+02  .4545674186090D+02 -.7176391957670D+02 -.1191101217260D+03
  .1885672642180D+03  .2638212487040D+03 -.3021374987240D+03  .2597079052980D+03
 -.1853069387000D+03 -.6075939648220D+02
  .2936050019080D+01 -.9151814473270D+02 -.5080078842060D+02 -.1913240738890D+02
 -.4912918086350D+02 -.7274239423240D+02  .9969376283770D+02  .1421739478230D+03
 -.1974855254770D+03 -.2438147868530D+03  .2518064745360D+03 -.2022316614010D+03
  .1394593243160D+03  .1066657462420D+03
 -.3726981819480D-01  .1259545100500D+03  .7828466049770D+02  .1948763203830D+02
  .5838231429790D+02  .7773130832840D+02 -.9552707300510D+02 -.1290065813760D+03
  .1694863795590D+03  .1943052119360D+03 -.1876294491570D+03  .1440859646470D+03
 -.9719193837090D+02 -.1487659326700D+03
 -.8157817421300D+01 -.1349342071100D+03 -.1001939208170D+03 -.7581611334190D+01
 -.4352917765800D+02 -.5612966676130D+02  .6946015723760D+02  .9682470727090D+02
 -.1259118290880D+03 -.1384314593350D+03  .1281297670920D+03 -.9561153276740D+02
  .6359727038110D+02  .1660801608240D+03
  .1982351780840D+02  .1052119000260D+03  .1031401974470D+03 -.1296653515640D+02
  .1723541959000D+02  .2852231950600D+02 -.4041219631770D+02 -.6075242392270D+02
  .7958327504180D+02  .8539523405770D+02 -.7694049565410D+02  .5636387520810D+02
 -.3715667170870D+02 -.1452100548420D+03
 -.2664190556070D+02 -.5267687525800D+02 -.7954509357420D+02  .2101364128450D+02
 -.1476101414680D+01 -.1066817086770D+02  .1895892610520D+02  .3076310227890D+02
 -.4065976378570D+02 -.4298117488970D+02  .3806177726150D+02 -.2755209334150D+02
  .1805845581900D+02  .9741494142170D+02
  .2015646193210D+02  .1256581149740D+02  .3830636645630D+02 -.1296248063780D+02
 -.1870825679020D+01  .2785241381810D+01 -.6512803086720D+01 -.1122716203070D+02
  .1493763211480D+02  .1564016563730D+02 -.1369585261580D+02  .9837628512620D+01
 -.6423744502080D+01 -.4752356502850D+02
 -.5879195875660D+01  .5121745544930D+00 -.8350326616660D+01  .3465542572320D+01
  .8186859095410D+00 -.3417661717760D+00  .1197126353850D+01  .2187303089270D+01
 -.2931206152240D+01 -.3051202446260D+01  .2652563335090D+01 -.1895712059190D+01
  .1234832985470D+01  .1308689517770D+02
Spectral Representation Operator
End Of Spectral Representation Operator
*
/P.ECP.HW.3s3p.2s2p.5e-LANL2DZ.
Ref: W.R. Wadt and P.J. Hay, J. Chem. Phys. 82 (1985) 284
core [Ne], Valence [3s, 3p]
* Basis set taken from: http://www.emsl.pnl.gov:2080/forms/basisform.html
      5.0   1
 3    2
       1.5160
       0.3369
       0.1211
   -0.5862089    0.0000000
    1.2994376    0.0000000
    0.0000000    1.0000000
 3    2
       3.7050
       0.3934
       0.1190
   -0.0691472    0.0000000
    1.0161988    0.0000000
    0.0000000    1.0000000
M1
 0
M2
 0
COREREP
 1.0
PROJOP
 2
  17  17
 -.9955015257190D+03 -.4696431457580D-07 -.1273520907280D-11  .2512163285290D-10
  .3116994333280D-05  .1789033912570D-03  .1045438875970D-01  .2720601625310D+00
  .1967374961770D+01  .5833345996710D+01  .1252066540680D+02  .2554873021240D+02
  .5543883276060D+02  .1413285643360D+03  .2300876979010D+03  .8519799762000D+03
  .2084012878570D+04
  .1250000000000D+00  .1882039540980D+00  .2929402098540D+00  .4604940998300D+00
  .7238842905310D+00  .1149235599540D+01  .1824521516130D+01  .2896602545320D+01
  .4598633795970D+01  .7300771320400D+01  .1159067328200D+02  .1840130326440D+02
  .2921383025720D+02  .4637975180530D+02  .7363229534040D+02  .1168983167450D+03
  .1855872670370D+03
 -.2423502855230D-01 -.9232908596810D+01 -.2017121963190D+02  .2484379583350D+02
 -.6204258909480D+01  .1765075832840D+01 -.3203298520670D+00 -.8962041692440D-01
  .3729532405300D-01  .2069020153630D-01  .1498122444330D-01  .1121679583230D-01
  .7619496095520D-02 -.6608554280520D-02  .2414102651780D-01  .2064213666970D-01
 -.5478872673240D-02
  .1489710914680D+00  .4802322179580D+02  .5569730156730D+02 -.1023578709870D+03
  .3399313492930D+02 -.1029463901900D+02  .1946354753130D+01  .5498407115430D+00
 -.2291293226310D+00 -.1271519876110D+00 -.9208636252830D-01 -.6896038941740D-01
 -.4686170783830D-01  .4055888766600D-01 -.1483330953040D+00 -.1269077751240D+00
  .3367385780420D-01
 -.5475574288550D+00 -.1292374797450D+03 -.7494027593600D+02  .1992425389660D+03
 -.1019882544740D+03  .3454447490280D+02 -.7012275217420D+01 -.2014418937630D+01
  .8414580555210D+00  .4671870979540D+00  .3384475204960D+00  .2535168290420D+00
  .1723570697680D+00 -.1487892989980D+00  .5449379753700D+00  .4665655992420D+00
 -.1237510615030D+00
  .1642430122570D+01  .2177139545390D+03  .7333605799540D+02 -.2578227065630D+03
  .2162632316060D+03 -.8891062098720D+02  .2033875102310D+02  .6009892687300D+01
 -.2520697075710D+01 -.1400595004720D+01 -.1014996291810D+01 -.7604813296540D+00
 -.5172191738320D+00  .4456717761600D+00 -.1633967826970D+01 -.1399755979310D+01
  .3711504327840D+00
 -.4431145957400D+01 -.2571472397630D+03 -.6218300705710D+02  .2584077875910D+03
 -.3293968533840D+03  .1848995481360D+03 -.5177639107770D+02 -.1606619589450D+02
  .6787383453710D+01  .3775839539160D+01  .2737107581810D+01  .2050878171300D+01
  .1394561117080D+01 -.1204049133680D+01  .4409834488470D+01  .3776195184370D+01
 -.1001418654400D+01
  .1175884954380D+02  .2438021832360D+03  .5007451743110D+02 -.2254267523540D+03
  .3866138105460D+03 -.2993690948650D+03  .1218934026890D+03  .4184291843780D+02
 -.1795029542880D+02 -.1000843406950D+02 -.7255465576960D+01 -.5433418276500D+01
 -.3687659077930D+01  .3224812286210D+01 -.1173001504370D+02 -.1001258541010D+02
  .2659311739020D+01
 -.3013811540490D+02 -.2081585042200D+03 -.4016440960380D+02  .1863781410610D+03
 -.3817459537180D+03  .3805767525610D+03 -.2195824532990D+03 -.1015318870800D+03
  .4558381289920D+02  .2558501508290D+02  .1854607002240D+02  .1386318071670D+02
  .9354954358220D+01 -.8488459731620D+01  .3027319631660D+02  .2559485089280D+02
 -.6830332391120D+01
  .6805996971270D+02  .1682540604850D+03  .3182472195110D+02 -.1492157958530D+03
  .3366494490970D+03 -.3991484042440D+03  .2942591183620D+03  .1780291143320D+03
 -.9851636935130D+02 -.5708143582420D+02 -.4154183570340D+02 -.3096726420790D+02
 -.2063838118380D+02  .2027399827200D+02 -.6939340084700D+02 -.5744522587820D+02
  .1549704820080D+02
 -.1272420910990D+03 -.1318540189750D+03 -.2480040948460D+02  .1167032917360D+03
 -.2769745416140D+03  .3664144227120D+03 -.3142766236090D+03 -.2228937095780D+03
  .1470894313080D+03  .1002826425920D+03  .7537976543050D+02  .5635987021720D+02
  .3678146049550D+02 -.4170956727700D+02  .1332153065520D+03  .1060633246000D+03
 -.2922176203340D+02
  .1942134313450D+03  .1007132018720D+03  .1891541132020D+02 -.8913881414010D+02
  .2172996955680D+03 -.3071277137340D+03  .2871553732840D+03  .2168945479430D+03
 -.1504690283500D+03 -.1181149798900D+03 -.1037594344840D+03 -.8032151759490D+02
 -.5087831766170D+02  .7361713219190D+02 -.2121624081070D+03 -.1579185523310D+03
  .4525219278310D+02
 -.2436362121430D+03 -.7457517838130D+02 -.1400130207130D+02  .6602551428900D+02
 -.1633349861010D+03  .2401084486160D+03 -.2352962324480D+03 -.1783099071080D+03
  .1138347182090D+03  .8821457911290D+02  .9293342834420D+02  .8398070864060D+02
  .5124312706720D+02 -.1133135482230D+03  .2839984809430D+03  .1881593305200D+03
 -.5814025226000D+02
  .2522462938510D+03  .5278244614170D+02  .9909073602170D+01 -.4674446541950D+02
  .1166059006520D+03 -.1754785656640D+03  .1764369412810D+03  .1309596878580D+03
 -.6996802052070D+02 -.4015714550980D+02 -.4492214231610D+02 -.5033706620830D+02
 -.2852733578210D+02  .1533509964940D+03 -.3230968317730D+03 -.1733334241160D+03
  .6257719098870D+02
 -.2147377085360D+03 -.3482306062640D+02 -.6537493879900D+01  .3084573005230D+02
 -.7732082721980D+02  .1180181553220D+03 -.1204580859080D+03 -.8767553718680D+02
  .3864228966990D+02  .8818950432240D+01  .3212406814240D+01  .4346320801340D+01
 -.1120388974690D+02 -.1787759339770D+03  .3112463428070D+03  .1084561197880D+03
 -.5649257868110D+02
  .1513040177780D+03  .2052800665900D+02  .3853885850510D+01 -.1818582132700D+02
  .4571713715830D+02 -.7038983237490D+02  .7255367400710D+02  .5241325023200D+02
 -.2057556046280D+02  .1051953005520D+01  .1005155496400D+02  .1582759420710D+02
  .3357951461140D+02  .1682058515360D+03 -.2475643718760D+03 -.2119382627330D+02
  .4247755726150D+02
 -.9205982308780D+02 -.1005781843040D+02 -.1888268369840D+01  .8911020891720D+01
 -.2243944128900D+02  .3473718224520D+02 -.3605230361950D+02 -.2611183113980D+02
  .1003137857270D+02 -.1316058400700D+01 -.7089521343170D+01 -.1221995526490D+02
 -.2585773903390D+02 -.1124413529990D+03  .1529853542960D+03 -.3705998265550D+02
 -.2548449231890D+02
  .4731145342240D+02  .3583433117620D+01  .6727677739840D+00 -.3175022384130D+01
  .8003434969120D+01 -.1243149478420D+02  .1296174196030D+02  .9431835410290D+01
 -.3665209164050D+01  .4428337469230D+00  .2648459167800D+01  .4793622836310D+01
  .1063364136880D+02  .4687291227370D+02 -.6253290538160D+02  .3845936417700D+02
  .9618510247170D+01
 -.1404404500400D+02 -.6793840598900D+00 -.1275513060380D+00  .6019738859530D+00
 -.1518391353960D+01  .2363371761270D+01 -.2470767157180D+01 -.1799976273710D+01
  .6954100349660D+00 -.9775263319360D-01 -.5428330207480D+00 -.1000847837270D+01
 -.2242907819930D+01 -.9561302025360D+01  .1202988751690D+02 -.1272301319410D+02
 -.2964260880260D+00
  16  16
 -.1113825297940D+03  .3533380339390D-11  .2311733693810D-08  .1244612202580D-06
  .6138280147970D-05  .4728788086760D-03  .1625958108100D-01  .1842221175330D+00
  .8471459165040D+00  .2639474764660D+01  .7282581230080D+01  .8960213279180D+01
  .1948560978800D+02  .5951234680360D+02  .1195340799290D+03  .3846151479020D+03
  .1768137493830D+00  .2423402567710D+00  .3487581722000D+00  .5188654300570D+00
  .7719427269900D+00  .1168931743770D+01  .1770081346460D+01  .2680385736640D+01
  .4058834760080D+01  .6146182388760D+01  .9306995773140D+01  .1409332897110D+02
  .2134114233300D+02  .3231630773770D+02  .4893570032490D+02  .7410199165450D+02
 -.2040401365870D-01 -.3171362496370D+02 -.2600583309730D+02 -.1416260521880D+02
 -.2796172298310D+01 -.5588857635580D+00  .1584342039330D+00 -.6281171946010D-01
  .3399651076230D-01 -.2380907283350D-01  .1918074104830D-01 -.3642712641260D-01
  .1328620520370D-01  .1187378523350D-01 -.1078898905960D-01  .2247514938520D-02
  .1251743173320D+00  .9471446027820D+02  .1059393686030D+03  .6764278970150D+02
  .1556369537700D+02  .3362370726210D+01 -.9687695472000D+00  .3851059534360D+00
 -.2085237964910D+00  .1460525377520D+00 -.1176748599100D+00  .2236801366950D+00
 -.8150183985120D-01 -.7283414688080D-01  .6616330812800D-01 -.1379071639460D-01
 -.4640393212750D+00 -.1375412150050D+03 -.1995734187270D+03 -.1674662612960D+03
 -.4940486968090D+02 -.1205459567250D+02  .3570318075130D+01 -.1426104654460D+01
  .7727666184010D+00 -.5413554853570D+00  .4362789396900D+00 -.8308838462620D+00
  .3020877150040D+00  .2699306949860D+00 -.2450664077810D+00  .5114708232410D-01
  .1509187567610D+01  .1463178544060D+03  .2564381553550D+03  .2855280784150D+03
  .1236229055490D+03  .3684931148800D+02 -.1148112021270D+02  .4628441581800D+01
 -.2511591361910D+01  .1760097544650D+01 -.1419171170920D+01  .2713392698400D+01
 -.9821225172270D+00 -.8773646250730D+00  .7955644028830D+00 -.1665043156930D+00
 -.4381702116540D+01 -.1320170727450D+03 -.2592197412030D+03 -.3607528004970D+03
 -.2189440604190D+03 -.9414641096270D+02  .3255247518380D+02 -.1337948423880D+02
  .7282188700640D+01 -.5107005099830D+01  .4121692352700D+01 -.7937809700100D+01
  .2849476576840D+01  .2544353105170D+01 -.2301636944330D+01  .4843131902680D+00
  .1202307387440D+02  .1085053857820D+03  .2274901528440D+03  .3733202704060D+03
  .2924760867090D+03  .1761297068450D+03 -.8333077650490D+02  .3625202854400D+02
 -.1990916819890D+02  .1399147570370D+02 -.1131555884330D+02  .2210848800110D+02
 -.7807297919000D+01 -.6964654157870D+01  .6268975426500D+01 -.1333997983420D+01
 -.2915593673780D+02 -.8783763626850D+02 -.1906338389830D+03 -.3484914456450D+03
 -.3231845538990D+03 -.2457848568430D+03  .1531863788500D+03 -.8371177728830D+02
  .4765962485340D+02 -.3376454150840D+02  .2744998004430D+02 -.5514927539470D+02
  .1887196627710D+02  .1680470337290D+02 -.1497258935900D+02  .3259714846830D+01
  .5799867145660D+02  .6951451629970D+02  .1536961823200D+03  .3007196705280D+03
  .3102095961350D+03  .2734880802730D+03 -.2029965680790D+03  .1341219855630D+03
 -.8983374776980D+02  .6595418296670D+02 -.5446746713770D+02  .1152696187640D+03
 -.3725898995830D+02 -.3308150672340D+02  .2887777059280D+02 -.6579258801840D+01
 -.9231651306910D+02 -.5358772337940D+02 -.1197299229230D+03 -.2443493385570D+03
 -.2691851668460D+03 -.2594755390440D+03  .2113554380360D+03 -.1523729284890D+03
  .1163697394560D+03 -.9829486627010D+02  .8536737821150D+02 -.1988871403260D+03
  .5818649297150D+02  .5147748869320D+02 -.4306929131320D+02  .1075975991870D+02
  .1167831706810D+03  .3991650231790D+02  .8973827159120D+02  .1879996927710D+03
  .2156452900350D+03  .2191456757800D+03 -.1861433371080D+03  .1342985877780D+03
 -.1045720912760D+03  .1005828089400D+03 -.1018825678190D+03  .2854124265550D+03
 -.6997326932570D+02 -.6174949695500D+02  .4669467201890D+02 -.1433607695870D+02
 -.1160073457210D+03 -.2830551570690D+02 -.6387588208290D+02 -.1360276001030D+03
 -.1599771249390D+03 -.1677740053580D+03  .1448801993030D+03 -.9993939130160D+02
  .7057376928800D+02 -.6921933685130D+02  .8447675627600D+02 -.3425826881270D+03
  .6022486206580D+02  .5323829215610D+02 -.2846562745280D+02  .1579855338420D+02
  .8889610866590D+02  .1863396609130D+02  .4214950464680D+02  .9069091496490D+02
  .1083371982130D+03  .1158321761690D+03 -.1007714398370D+03  .6625167701710D+02
 -.3984745672070D+02  .3404798746780D+02 -.4830850905220D+02  .3398392085390D+03
 -.2950355409640D+02 -.2521356128310D+02 -.1243390587920D+02 -.1490458872980D+02
 -.5449663352170D+02 -.1092471588180D+02 -.2474801478570D+02 -.5359871282750D+02
 -.6466335003830D+02 -.6999157619230D+02  .6124242337470D+02 -.3919906911730D+02
  .2070837525180D+02 -.1399412023110D+02  .2194562408590D+02 -.2691444051910D+03
  .4067160293020D+01 -.5588495849280D+01  .5654693660750D+02  .1287255134620D+02
  .3342395270000D+02  .5316595640730D+01  .1205512348650D+02  .2621790133940D+02
  .3183003825280D+02  .3472927389710D+02 -.3055128639360D+02  .1941232107820D+02
 -.9681594055390D+01  .5514969649970D+01 -.9255308915940D+01  .1595241997180D+03
  .3423880841750D+01  .1665548134150D+02 -.7164655597720D+02 -.1014960898070D+02
 -.2207353785980D+02 -.1886075260990D+01 -.4279148682900D+01 -.9331320461860D+01
 -.1137443488520D+02 -.1247419059190D+02  .1101315401770D+02 -.6971518463400D+01
  .3354501891200D+01 -.1649627779380D+01  .2837926105260D+01 -.6273618428200D+02
 -.2935679568450D+01 -.1182322710410D+02  .4665336464660D+02  .5230255022810D+01
  .8399331069210D+01  .3589159449590D+00  .8146263687900D+00  .1779459104400D+01
  .2174638108060D+01  .2392337818310D+01 -.2113928549550D+01  .1322217306230D+01
 -.5915005192090D+00  .1953388141230D+00 -.3052746966880D+00  .1227404866240D+02
  .1104696825250D+01  .3893109182870D+01 -.1317457188490D+02 -.8475122655310D-01
  15  15
 -.2732468265780D+02 -.1124031944700D+02 -.8011534072150D+01 -.3046699879390D+01
 -.1074338946460D+01 -.3292571769410D+00 -.8509234326730D-01 -.3885108688800D-01
 -.1160962136100D-01 -.5270567389800D-03 -.9691246817230D-05 -.1044958042760D-06
 -.4293954027330D-09  .5512312918050D+01  .1411164486650D+02
  .3718067889900D+00  .4833331000540D+00  .6714888239070D+00  .9569376930610D+00
  .1377283583960D+01  .2001971625030D+01  .2909996484470D+01  .4229869911100D+01
  .6209496612660D+01  .9115610880000D+01  .1338181931630D+02  .1964466129260D+02
  .2883858376670D+02  .4233536538390D+02  .6214879262770D+02
 -.4456564873170D+00  .1785107412910D+01  .6156592153270D+00  .3907624188400D+00
  .9103492551060D+00 -.1469800158200D+01 -.2583566630460D+01  .5040530595700D+01
 -.3125274832690D+01 -.7810540648220D+01 -.1663444298210D+02 -.2916239616430D+02
  .3549605096400D+02  .3762782363430D+00 -.1830260256200D+01
  .2009038068410D+01 -.8033418049380D+01 -.2763108337830D+01 -.1767921814000D+01
 -.4107702594060D+01  .6628634505640D+01  .1166116670090D+02 -.2306730536750D+02
  .1392216783570D+02  .3437487827280D+02  .6973788323780D+02  .1085704007280D+03
 -.1006256530320D+03 -.1654609430000D+01  .8243884997310D+01
 -.5239042744180D+01  .2087877906680D+02  .7143266349500D+01  .4642572787380D+01
  .1073170707780D+02 -.1730101302970D+02 -.3048531640430D+02  .6189577879280D+02
 -.3547359405260D+02 -.8552863858180D+02 -.1575896384420D+03 -.1965566065440D+03
  .1430684882910D+03  .4105610691280D+01 -.2146254356190D+02
  .1049085298260D+02 -.4154613891380D+02 -.1407133371170D+02 -.9418691338130D+01
 -.2156819727880D+02  .3471145677730D+02  .6135231196350D+02 -.1304596719840D+03
  .6800229859950D+02  .1567769346420D+03  .2426012614760D+03  .2454968426810D+03
 -.1510705505790D+03 -.7447711614990D+01  .4284555159940D+02
 -.1672106264330D+02  .6538738709650D+02  .2168798678970D+02  .1540861341690D+02
  .3464940056810D+02 -.5559338778410D+02 -.9888491603160D+02  .2285426322510D+03
 -.9930150287560D+02 -.2109811746970D+03 -.2797268972250D+03 -.2438177764260D+03
  .1356615204910D+03  .9456830052430D+01 -.6787255147200D+02
  .2095255939580D+02 -.7955934114170D+02 -.2505304308430D+02 -.2048106921110D+02
 -.4430482561740D+02  .7068847235430D+02  .1276513224030D+03 -.3438609071600D+03
  .1028560325340D+03  .2210106573820D+03  .2678081545810D+03  .2130160563410D+03
 -.1122208582500D+03 -.5133641851330D+01  .8385568321230D+02
 -.1903875724780D+02  .6635596752880D+02  .1741978995950D+02  .2169256538930D+02
  .4289831183750D+02 -.6794104858600D+02 -.1288020289130D+03  .4462438535580D+03
 -.7571845267890D+02 -.1955641253900D+03 -.2294488616170D+03 -.1737366461840D+03
  .8907870231130D+02 -.1154918390700D+02 -.7319210458980D+02
  .9514915724910D+01 -.1953734057180D+02  .3671163516980D+01 -.1836854150720D+02
 -.2893455509840D+02  .4706354309510D+02  .1107685297680D+03 -.4891002927820D+03
  .4219441634920D+02  .1529129898560D+03  .1786208558780D+03  .1317996657310D+03
 -.6666527217230D+02  .4172090101180D+02  .2948585913450D+02
  .2797275361340D+01 -.4188868404190D+02 -.3204174760390D+02  .1580721836940D+02
  .1563735073090D+02 -.3437938931250D+02 -.9657217393720D+02  .4632478756790D+03
 -.2149016015630D+02 -.1114778215930D+03 -.1302567009830D+03 -.9471105410050D+02
  .4755325317410D+02 -.8098410227580D+02  .2843460707650D+02
 -.1026389426650D+02  .8663846638010D+02  .5678023239880D+02 -.2151168616260D+02
 -.2139560008530D+02  .3981860678760D+02  .8715621635290D+02 -.3879658943420D+03
  .1310486676590D+02  .7861171770750D+02  .9149531054530D+02  .6593396212970D+02
 -.3296548421520D+02  .1215033522870D+03 -.7087446636840D+02
  .8507188746930D+01 -.9241529204430D+02 -.6740387162700D+02  .3542503347400D+02
  .3535470840840D+02 -.4463517996780D+02 -.7118276603350D+02  .2819358990240D+03
 -.9403907852600D+01 -.5183453875260D+02 -.5987012346450D+02 -.4288799752080D+02
  .2138779988190D+02 -.1510768750370D+03  .7985109806020D+02
 -.6705687286010D+00  .6212221668580D+02  .5773202973180D+02 -.3832409769550D+02
 -.3567095768560D+02  .3669942468520D+02  .4816970159920D+02 -.1731716579100D+03
  .6514812635860D+01  .3054243335410D+02  .3495925069010D+02  .2493819640780D+02
 -.1241574405580D+02  .1538288986060D+03 -.6160846208520D+02
 -.4482344052050D+01 -.2316328299760D+02 -.3033030320740D+02  .2452405362950D+02
  .2256261906140D+02 -.2140633399940D+02 -.2543238823580D+02  .8529919153050D+02
 -.3726598276690D+01 -.1497616358180D+02 -.1698730761710D+02 -.1208047321260D+02
  .6007672531090D+01 -.1187613425810D+03  .3812822077520D+02
  .3482118554200D+01 -.1790165824630D+00  .7487554521980D+01 -.9432025004460D+01
 -.9114127349690D+01  .8419607947360D+01  .9481671023000D+01 -.3019358507900D+02
  .1517001840850D+01  .5372052206890D+01  .6043595362040D+01  .4287982302520D+01
 -.2130799579610D+01  .6000611282930D+02 -.2078094905500D+02
 -.1842341812440D+01  .3043406687390D+01 -.3857341148750D+00  .1940596861360D+01
  .1951286395430D+01 -.1753489812110D+01 -.1890802396350D+01  .5767562673050D+01
 -.3231150860850D+00 -.1039694203650D+01 -.1162011124000D+01 -.8231093214740D+00
  .4088113790190D+00 -.1449940505920D+02  .7153027833010D+01
Spectral Representation Operator
End Of Spectral Representation Operator
*
/S.ECP.HW.3s3p.2s2p.6e-LANL2DZ.
Ref: W.R. Wadt and P.J. Hay, J. Chem. Phys. 82 (1985) 284
core [Ne], Valence [3s, 3p]
* Basis set taken from: http://www.emsl.pnl.gov:2080/forms/basisform.html
      6.0   1
 3    2
       1.8500
       0.4035
       0.1438
   -0.5324335    0.0000000
    1.2763801    0.0000000
    0.0000000    1.0000000
 3    2
       4.9450
       0.4870
       0.1379
   -0.0608116    0.0000000
    1.0132686    0.0000000
    0.0000000    1.0000000
M1
 0
M2
 0
COREREP
 1.0
PROJOP
 2
  17  17
 -.1215422630690D+04 -.9787883252560D-07 -.7238673025070D-10  .6519219330320D-12
  .3320181515790D-05  .2187139804580D-03  .1297582181100D-01  .3392080964140D+00
  .2455612634550D+01  .7148133041790D+01  .1457046607080D+02  .2884147122960D+02
  .6156824693760D+02  .1624889142190D+03  .2835154094390D+03  .1038631574360D+04
  .2422271719200D+04
  .1479591933380D+00  .2227720418510D+00  .3467455771700D+00  .5450746843820D+00
  .8568426855750D+00  .1360319778110D+01  .2159637854030D+01  .3428631808200D+01
  .5443281175260D+01  .8641729882470D+01  .1371957335240D+02  .2178113589890D+02
  .3457963807330D+02  .5489848531460D+02  .8715660017740D+02  .1383694451850D+03
  .2196747385960D+03
 -.2508841727050D-01 -.9320766920850D+01  .1704831778310D+02 -.2696498524350D+02
 -.6558998763910D+01 -.1814031287800D+01 -.3257862768840D+00 -.9069970451710D-01
 -.3760311833090D-01  .2030895452970D-01  .1460033136180D-01  .1127199329770D-01
 -.8017503820950D-02  .3427782816280D-02 -.2396667735510D-01 -.2169293849410D-01
 -.6053789287340D-02
  .1540896590770D+00  .4816116995980D+02 -.7872531373590D+02  .8507005307930D+02
  .3579359861440D+02  .1056720259990D+02  .1977555150460D+01  .5559675902770D+00
  .2308171890370D+00 -.1246973941940D+00 -.8966678137530D-01 -.6924143153430D-01
  .4926763709920D-01 -.2099338206830D-01  .1471310498860D+00  .1332575085640D+00
  .3717659039080D-01
 -.5656420352750D+00 -.1282994072310D+03  .1631999256130D+03 -.1337552133460D+03
 -.1066391892240D+03 -.3538402628760D+02 -.7113442334560D+01 -.2034040521020D+01
 -.8465002817480D+00  .4575345878560D+00  .3291084928670D+00  .2542165577100D+00
 -.1809679643540D+00  .7679016779930D-01 -.5397799617160D+00 -.4892771821240D+00
 -.1364470100910D+00
  .1693630164150D+01  .2135284319670D+03 -.2177389574480D+03  .1505453561890D+03
  .2236267938050D+03  .9075643322410D+02  .2058491653350D+02  .6056721798750D+01
  .2531036305600D+01 -.1369059614250D+01 -.9851462242610D+00 -.7611943407240D+00
  .5420815750100D+00 -.2293020762800D+00  .1615463737890D+01  .1465262388310D+01
  .4084899081720D+00
 -.4559370774190D+01 -.2489961907860D+03  .2210448356750D+03 -.1400568645400D+03
 -.3371540663370D+03 -.1877640411690D+03 -.5224760135080D+02 -.1615382413030D+02
 -.6800133094020D+01  .3682689719450D+01  .2650755670070D+01  .2048334609020D+01
 -.1458521907700D+01  .6186435437690D+00 -.4350412565330D+01 -.3944427330330D+01
 -.1099763763460D+01
  .1207390752840D+02  .2332833788000D+03 -.1937150564760D+03  .1181717666640D+03
  .3926134435220D+03  .3026795539540D+03  .1226104957180D+03  .4197917700170D+02
  .1794843769580D+02 -.9743003132360D+01 -.7012606535500D+01 -.5415592862910D+01
  .3849668212730D+01 -.1664746250410D+01  .1155063570520D+02  .1043753782230D+02
  .2914349622030D+01
 -.3090701202750D+02 -.1974049814930D+03  .1603694588920D+03 -.9650809219570D+02
 -.3855211183800D+03 -.3836759294650D+03 -.2204798813990D+03 -.1017477062320D+03
 -.4554459896890D+02  .2489355212980D+02  .1791059589510D+02  .1380255055750D+02
 -.9759677473580D+01  .4463684588100D+01 -.2979796719910D+02 -.2665197390980D+02
 -.7475983212110D+01
  .6977431994880D+02  .1586645516700D+03 -.1284363496450D+03  .7694381575860D+02
  .3387039094290D+03  .4016704714510D+03  .2952231578700D+03  .1784061347390D+03
  .9850892734890D+02 -.5561076028120D+02 -.4014330271630D+02 -.3083101431350D+02
  .2155211098400D+02 -.1108325256080D+02  .6841097008700D+02  .5981821357040D+02
  .1695645925580D+02
 -.1304671501740D+03 -.1239439665590D+03  .1004609638240D+03 -.6009099756060D+02
 -.2779884528460D+03 -.3683142587050D+03 -.3151972117880D+03 -.2234634100840D+03
 -.1472723104640D+03  .9792460899920D+02  .7292788626210D+02  .5612600885000D+02
 -.3850597049830D+02  .2420483213490D+02 -.1317916548430D+03 -.1105298115340D+03
 -.3197739967260D+02
  .1991785685330D+03  .9450753748480D+02 -.7673558261450D+02  .4587135743300D+02
  .2177641582080D+03  .3085047278420D+03  .2879490123680D+03  .2175378594530D+03
  .1507969446910D+03 -.1151810883550D+03 -.1002989387220D+03 -.7991290651800D+02
  .5350845066160D+02 -.4608917083940D+02  .2110646808730D+03  .1648020441200D+03
  .4952200107200D+02
 -.2499738637290D+03 -.6991329424690D+02  .5683945445130D+02 -.3396796134940D+02
 -.1635316970990D+03 -.2410809079590D+03 -.2359180904330D+03 -.1788493727380D+03
 -.1140332777020D+03  .8522609982660D+02  .8896353792660D+02  .8322713032510D+02
 -.5450618662060D+02  .7712139731860D+02 -.2848930773890D+03 -.1969631936090D+03
 -.6361880436890D+02
  .2591902668520D+03  .4945608737760D+02 -.4024141231720D+02  .2404509272270D+02
  .1166799965960D+03  .1761419745260D+03  .1768827938970D+03  .1313133590170D+03
  .6990781868590D+02 -.3762989246880D+02 -.4132914530420D+02 -.4931757703670D+02
  .3196019975600D+02 -.1131362820590D+03  .3281589091620D+03  .1829616387690D+03
  .6846765192040D+02
 -.2213951607970D+03 -.3261826591370D+02  .2655468542250D+02 -.1586561026670D+02
 -.7734297956700D+02 -.1184442693140D+03 -.1207515471420D+03 -.8787962522990D+02
 -.3846976060920D+02  .7092394272690D+01  .7283763333200D+00  .3525939799090D+01
  .7937812319480D+01  .1411002538800D+03 -.3215847720960D+03 -.1176342837780D+03
 -.6177880138590D+02
  .1566828556550D+03  .1922477094030D+02 -.1565600671420D+02  .9353510223840D+01
  .4572030932050D+02  .7063629805280D+02  .7272772745790D+02  .5253427405510D+02
  .2046903275010D+02  .1963154838950D+01  .1134764520940D+02  .1615355125580D+02
 -.3077846392020D+02 -.1390131434930D+03  .2608155329050D+03  .2864080076360D+02
  .4630365966570D+02
 -.9535183869580D+02 -.9418281949380D+01  .7671438370640D+01 -.4583079368820D+01
 -.2243792396390D+02 -.3485635493610D+02 -.3613924922240D+02 -.2618190207020D+02
 -.1001428762830D+02 -.1668932229390D+01 -.7591726815160D+01 -.1221400203040D+02
  .2395888228310D+02  .9473634330730D+02 -.1635717591810D+03  .3237225441690D+02
 -.2754849868490D+02
  .4860628034390D+02  .3355362911600D+01 -.2733360587370D+01  .1632937700540D+01
  .8002202174360D+01  .1247358172820D+02  .1299338783920D+02  .9461516968660D+01
  .3674743195090D+01  .5352323719170D+00  .2779906500680D+01  .4725466479130D+01
 -.9784781906750D+01 -.3967209663760D+02  .6749210377920D+02 -.3654810689430D+02
  .1033088169310D+02
 -.1428803061740D+02 -.6361189123640D+00  .5182368431140D+00 -.3095965113820D+00
 -.1518076129800D+01 -.2371307502540D+01 -.2476848603170D+01 -.1806181948140D+01
 -.6991538507970D+00 -.1104473989430D+00 -.5593536848090D+00 -.9758701270620D+00
  .2056924973530D+01  .8159655083430D+01 -.1313874221500D+02  .1235381678360D+02
 -.4107893843400D+00
  17  17
 -.1039463266380D+03 -.7953865994350D+00  .4923509652880D-11  .1313707586900D-07
  .2397850225460D-05  .3902945434600D-03  .1810220318650D-01  .4046366874400D-01
  .3213725089420D+00  .1162341313110D+01  .3446811731590D+01  .6799247928220D+01
  .9519397358060D+01  .2426753445450D+02  .6488632883780D+02  .1034010429760D+03
  .4631993879030D+03
  .2196125550660D+00  .3010001381150D+00  .4331771344950D+00  .6444598524030D+00
  .9587959942620D+00  .1451878532310D+01  .2198539924230D+01  .3329188834240D+01
  .5041299533340D+01  .7633901905300D+01  .1155980871880D+02  .1750470195630D+02
  .2650689107690D+02  .4013865967640D+02  .6078087377140D+02  .9203881360770D+02
  .1393718563860D+03
 -.9819304766430D-02 -.3832822573340D+00  .4320516283220D+02  .2704939991890D+01
 -.4320523695410D+01 -.1351546452070D+01 -.7499325376480D+00 -.1427730360020D+01
  .2580274856740D+00 -.1997781558290D-01  .2409246594860D-01 -.2293358771710D-01
  .8944259803970D-02 -.7060147963110D-02 -.6700191072290D-02  .2616438748240D-02
 -.7889513576750D-03
  .6765209103150D-01  .4386628087950D+01 -.1520073413980D+03 -.2292108745100D+01
  .3860759766470D+02  .1367592811010D+02  .8118015668100D+01  .1625935893020D+02
 -.3073112754360D+01  .3175691068990D+00 -.2151810163280D+00  .1612837492280D+00
[...]
  .5106397326690D+01  .1296670637620D+01  .9357291001160D+00 -.6918846783160D+00
  .1049364911380D-01  .2104108767510D+00  .9631599445120D-01 -.3053197731310D-01
  .5143554702680D-01  .8295274045070D-01
  .4578100941910D+00 -.5722853736830D+02  .2870656730240D+03 -.7168545245490D+02
  .3757084988160D+02 -.8706624186950D+02  .2982883249700D+02 -.2528124791600D+02
 -.1794916622140D+02 -.4588717285130D+01 -.3316814086560D+01  .2476415462350D+01
 -.1002368060780D-01 -.8230640926200D+00 -.3383361616720D+00  .1234496791160D+00
 -.1961522780910D+00 -.3163238634690D+00
 -.1479058569410D+01  .1268759566930D+03 -.3630002872210D+03  .1388231511000D+03
 -.4438338527510D+02  .1702055284280D+03 -.6163955361150D+02  .5474335422730D+02
  .4029163606060D+02  .1067534899350D+02  .7781924985720D+01 -.6101703765090D+01
 -.3069395590220D+00  .2855880797550D+01  .7507372894940D+00 -.4783417905500D+00
  .6316192630820D+00  .1020767266110D+01
  .4273687794160D+01 -.2218969618920D+03  .3786337565830D+03 -.1977543164570D+03
  .1206804099430D+02 -.2284601594540D+03  .9187898584180D+02 -.9090507221880D+02
 -.7224150207770D+02 -.2050809534160D+02 -.1518098278430D+02  .1291375298890D+02
  .1744929900760D+01 -.8809483134610D+01 -.1327407999270D+01  .1580066962960D+01
 -.1819851171730D+01 -.2940966325990D+01
 -.1138659027670D+02  .3313716972060D+03 -.3531797385170D+03  .2266421589460D+03
  .3703720029090D+02  .2366714142200D+03 -.9411521530810D+02  .1208504284060D+03
  .1127941534820D+03  .3612188238550D+02  .2739507118210D+02 -.2604652213960D+02
 -.6262606582320D+01  .2488302672610D+02  .2097892353050D+01 -.4562960072960D+01
  .4839559888400D+01  .7785378705770D+01
  .2631639629490D+02 -.4255163388320D+03  .3088226406520D+03 -.2251401770660D+03
 -.7446977547100D+02 -.2073149075830D+03  .6027649077280D+02 -.1190168131810D+03
 -.1535546360710D+03 -.5910324363780D+02 -.4634564911730D+02  .4964574377450D+02
  .1693228063830D+02 -.6128841124360D+02 -.3297124824190D+01  .1099808736170D+02
 -.1117289802930D+02 -.1775403628430D+02
 -.4883664028920D+02  .4636235554430D+03 -.2521722783250D+03  .1988430892660D+03
  .8886705960400D+02  .1610616175200D+03 -.1434542261690D+02  .8314059755530D+02
  .1694032807300D+03  .8389373592560D+02  .6925025913040D+02 -.8267929802470D+02
 -.3486189360540D+02  .1238530785030D+03  .5767815749260D+01 -.2078870787240D+02
  .2071214399650D+02  .3207395165690D+02
  .7331026984680D+02 -.4440608572140D+03  .1978218638430D+03 -.1639113429080D+03
 -.8616528011120D+02 -.1184378546740D+03 -.1754697314470D+02 -.4620481316200D+02
 -.1577359483940D+03 -.9246512283380D+02 -.8625041720240D+02  .1157797472190D+03
  .5725655565410D+02 -.2105982181030D+03 -.1155751959580D+02  .3123412266780D+02
 -.3100283281600D+02 -.4549257725940D+02
 -.8900586036530D+02  .3875593444650D+03 -.1543987412290D+03  .1319194278040D+03
  .7601932255190D+02  .8734327596860D+02  .2996027994410D+02  .3160192475910D+02
  .1404296897920D+03  .8191911055760D+02  .8097544889650D+02 -.1288478085800D+03
 -.7547612350850D+02  .3064329316380D+03  .2341851580100D+02 -.3701485703510D+02
  .3732687812110D+02  .4842506393550D+02
  .8462975080030D+02 -.3100997223600D+03  .1181355323730D+03 -.1029014602550D+03
 -.6261990304780D+02 -.6404572834000D+02 -.3007554245040D+02 -.3266593590350D+02
 -.1262858910810D+03 -.6593777232790D+02 -.5845410771620D+02  .1039887330760D+03
  .7636983808150D+02 -.3833284575180D+03 -.4330779015490D+02  .3228647129210D+02
 -.3464554453590D+02 -.3038196623930D+02
 -.5800468867620D+02  .2333956259980D+03 -.8758062744840D+02  .7722868135690D+02
  .4859771856750D+02  .4605725553640D+02  .2545334164480D+02  .3273114487780D+02
  .1084369569490D+03  .5211650444150D+02  .3696061598400D+02 -.5880834495500D+02
 -.5315978554600D+02  .4149205630030D+03  .6926974790170D+02 -.1565630174840D+02
  .2182830957920D+02 -.1259238574830D+02
  .2073494623980D+02 -.1690943293910D+03  .6187513259300D+02 -.5499364242760D+02
 -.3534701952320D+02 -.3181200450990D+02 -.2012347193390D+02 -.2415948681020D+02
 -.8155006946660D+02 -.3893606719350D+02 -.2290863937460D+02  .2538236734710D+02
  .2625134358830D+02 -.3873421006100D+03 -.8954337721420D+02 -.6204533713050D+01
 -.3848801785620D+01  .7227945834140D+02
  .5379916528150D+01  .1168718576480D+03 -.4059567462560D+02  .3626562647350D+02
  .2363193586210D+02  .2050263308560D+02  .1496306156780D+02  .1159203625210D+02
  .5117723818100D+02  .2574719678780D+02  .1385367384450D+02 -.1205836592730D+02
 -.1410402334060D+02  .3092892065360D+03  .8312628863720D+02  .1941470803790D+02
 -.9551086991080D+01 -.1257146842860D+03
 -.5584767962490D+01 -.7450916635450D+02  .2373154549400D+02 -.2127089659380D+02
 -.1398636254820D+02 -.1181302645300D+02 -.1000714543810D+02 -.1225799386000D+01
 -.2434444873560D+02 -.1315289391870D+02 -.5928663731650D+01  .6366915267110D+01
  .1106175264240D+02 -.2060344848670D+03 -.5411470300960D+02 -.1480160866130D+02
  .1140111053450D+02  .1432212578700D+03
 -.8544071918210D+01  .4250553341370D+02 -.1153471766100D+02  .1036115874550D+02
  .6853267760580D+01  .5669324906880D+01  .5725236544450D+01 -.4954354538500D+01
  .4535100564050D+01  .2458341761960D+01 -.1741542243290D+01  .1708347431100D+00
 -.7900267742910D+01  .1083593667270D+03  .2482931646100D+02  .5757562884330D+01
 -.6215649529890D+01 -.1118455839390D+03
  .1201927724100D+02 -.2012672853640D+02  .4103031790230D+01 -.3690798571420D+01
 -.2450827722390D+01 -.1987774323860D+01 -.2588567578110D+01  .6081712652440D+01
  .4666289859060D+01  .2935660085520D+01  .5228268692860D+01 -.4076335832560D+01
  .4064084756740D+01 -.4052987028780D+02 -.6955857470820D+01 -.1269968081990D+01
  .3377876182140D+01  .5490140142570D+02
 -.3977960905720D+01  .5794134672500D+01 -.7886942277320D+00  .7101113084150D+00
  .4728497992800D+00  .3738562092560D+00  .6982185335440D+00 -.2826964506980D+01
 -.3355071398850D+01 -.2084089981610D+01 -.2849274969950D+01  .2424901147160D+01
 -.1225065348960D+01  .8233877163210D+01  .5280627317410D+00 -.1122374292180D+00
 -.8970860061170D+00 -.1288297003400D+02
  18  18
 -.9251205032630D+02 -.1318821296620D+02 -.2343050219340D+01 -.2256780939780D+01
 -.1234800892500D+01 -.6250031819760D+00 -.5800790377450D+00 -.2432543715930D+00
 -.5396483271750D-01 -.4160156548020D-02 -.8382333127840D-04 -.4456041622280D-05
 -.3690395738510D-07  .2536238872130D+00  .1089865295070D+01  .5894105088730D+01
  .2779072607760D+02  .9592391948610D+02
  .1496989348860D+00  .1890749949840D+00  .2532407673400D+00  .3506425841320D+00
  .4903323338210D+00  .6924863929680D+00  .9779844635360D+00  .1394914227580D+01
  .1989587539320D+01  .2837779196990D+01  .4047567956540D+01  .5773108203830D+01
  .8234272701780D+01  .1174466934160D+02  .1675160186450D+02  .2389306645110D+02
  .3407904683130D+02  .4860746674370D+02
  .2585643629880D+01 -.1564673410580D+01  .1299026513410D+01  .8788566567730D+00
 -.2068507848440D+01  .2396409811130D+01 -.2213778365720D+01 -.3120693038370D+00
  .3824346323040D+01 -.1023450563620D+02 -.3405143329780D+02  .4201439642610D+02
 -.1049624421860D+01 -.1574569948570D+01  .2403051028890D+01 -.1861727282710D+01
 -.1135162105610D+01 -.2514262397380D+01
 -.1134961851790D+02  .6935743132670D+01 -.5128436001090D+01 -.3672639796140D+01
  .9266101329640D+01 -.8017693191330D+01  .1469391204610D+02  .1018259451490D+02
 -.5158018892800D+01  .2795626539810D+02  .1076304847040D+03 -.1498122408080D+03
  .2242150644120D+02 -.6270780812040D+01 -.1211388268040D+02  .8224020788810D+01
  .5001175527600D+01  .1103560755140D+02
  .2781090696390D+02 -.1726769952190D+02  .1154666317170D+02  .8660436045730D+01
 -.2317966449730D+02  .1482448240910D+02 -.4624592054650D+02 -.4310485322660D+02
 -.1136613051090D+02 -.3268503374780D+02 -.1697090227940D+03  .2738199668130D+03
 -.6036482488210D+02  .4213374999450D+02  .3332617723960D+02 -.2040926157290D+02
 -.1233051067960D+02 -.2703948934650D+02
 -.5368803076980D+02  .3419886390690D+02 -.2209709659770D+02 -.1660232881950D+02
  .4560948204490D+02 -.2569854561310D+02  .9871887894480D+02  .1000458517440D+03
  .4443079032770D+02  .2592271334730D+02  .2059502939470D+03 -.3591984566530D+03
  .8677145463120D+02 -.1043575410600D+03 -.6963073294290D+02  .4033189612950D+02
  .2404854942470D+02  .5219444740030D+02
  .8740923089260D+02 -.5805540159860D+02  .3902116642840D+02  .2783983819890D+02
 -.7593222477130D+02  .4831498972390D+02 -.1600383080820D+03 -.1620500831590D+03
 -.7210628054180D+02 -.2859665979850D+02 -.2182236100850D+03  .3780370253390D+03
 -.9103094602000D+02  .1614785995810D+03  .1207043671310D+03 -.6838958906300D+02
 -.3983882053700D+02 -.8496768907980D+02
 -.1213014753940D+03  .8659722086540D+02 -.6340149032370D+02 -.4118302611160D+02
  .1096494344290D+03 -.8938680901450D+02  .2113126413070D+03  .2068507877250D+03
  .7831818154300D+02  .3830880399240D+02  .2065300880710D+03 -.3440988726600D+03
  .8098072101110D+02 -.1775460850930D+03 -.1837904157320D+03  .1020235615960D+03
  .5706535544410D+02  .1178892380450D+03
  .1370872960890D+03 -.1107393368060D+03  .9058078990670D+02  .5178600581820D+02
 -.1345595081720D+03  .1440830717060D+03 -.2316882875890D+03 -.2234137718730D+03
 -.7659335510990D+02 -.3917991156300D+02 -.1769544730750D+03  .2855072791300D+03
 -.6594913462890D+02  .1394761439900D+03  .2473777316150D+03 -.1310297247520D+03
 -.6843624257350D+02 -.1331775160170D+03
 -.1194277115310D+03  .1208400908110D+03 -.1149904548400D+03 -.5541055606950D+02
  .1421648297680D+03 -.2026805618900D+03  .2203272110890D+03  .2281062361600D+03
  .8016309684490D+02  .3101059123930D+02  .1420765871430D+03 -.2251309709720D+03
  .5140594426820D+02 -.7029556103730D+02 -.3018968836860D+03  .1459362826240D+03
  .6759543620400D+02  .1158926761070D+03
  .6827113493770D+02 -.1099658631540D+03  .1336919545350D+03  .5264065193340D+02
 -.1376320900970D+03  .2558235865740D+03 -.2034214402780D+03 -.2315199474700D+03
 -.8298884409510D+02 -.2252272344960D+02 -.1128013546840D+03  .1770979797970D+03
 -.4017892162870D+02  .6989791867720D+01  .3394867375480D+03 -.1429321280610D+03
 -.5349862900070D+02 -.6583135706860D+02
  .1004719477650D+01  .7195412798270D+02 -.1465062958810D+03 -.5026228625160D+02
  .1397442473930D+03 -.2873572531490D+03  .1941771636050D+03  .2224439764630D+03
  .7647726221660D+02  .1684220950970D+02  .8822273856030D+02 -.1376409150620D+03
  .3110914845040D+02  .3347347758300D+02 -.3454445708040D+03  .1212589334360D+03
  .2972730149480D+02 -.2684020804780D+01
 -.5863378534290D+02 -.8190693703890D+01  .1599217305520D+03  .6054565984220D+02
 -.1527202332550D+03  .2871552211730D+03 -.1880500895630D+03 -.1991423115740D+03
 -.6349650594150D+02 -.1311738671750D+02 -.6755010828800D+02  .1048520415390D+03
 -.2364194054030D+02 -.5238933484240D+02  .3148785716180D+03 -.8803424011350D+02
 -.5474128950980D+01  .6235541602920D+02
  .8010920402800D+02 -.7117828560370D+02 -.1733742049320D+03 -.7320349748480D+02
  .1576441035520D+03 -.2596976441430D+03  .1740671146510D+03  .1685138970290D+03
  .5014374211720D+02  .9859817503510D+01  .5002100258150D+02 -.7737811204760D+02
  .1742137387850D+02  .5833016643440D+02 -.2561440057190D+03  .5336377939370D+02
 -.1046367374500D+02 -.9223299632190D+02
 -.6221843660880D+02  .1446877980770D+03  .1653738092210D+03  .7128667103950D+02
 -.1411199584790D+03  .2173210816850D+03 -.1465015372800D+03 -.1350931128210D+03
 -.3874197625970D+02 -.6658888992670D+01 -.3518614713140D+02  .5436498348500D+02
 -.1223007740580D+02 -.5615049742770D+02  .1890846226900D+03 -.2690710272610D+02
  .1427769538650D+02  .9232899870540D+02
  .2325614058320D+02 -.1830561264510D+03 -.1258794645530D+03 -.5456672988910D+02
  .1063270344110D+03 -.1614546296980D+03  .1089393047980D+03  .9902193402620D+02
  .2804034195220D+02  .4020762510720D+01  .2292856399060D+02 -.3542510140930D+02
  .7965722420840D+01  .4790904586180D+02 -.1334214989080D+03  .1546480703410D+02
 -.7993179164840D+01 -.8032127527450D+02
  .1231976674420D+02  .1666298051470D+03  .7386631468520D+02  .3315915793340D+02
 -.6613852823020D+02  .9874250929990D+02 -.7062257871580D+02 -.6354522502560D+02
 -.1787373655890D+02 -.2183416818480D+01 -.1330183602620D+02  .2054580770090D+02
 -.4618311245820D+01 -.3613229860760D+02  .8745348442720D+02 -.1727752507900D+02
 -.2177846882910D+01  .6998366859620D+02
 -.2820443914640D+02 -.1073435441540D+03 -.3200537417460D+02 -.1546822079010D+02
  .3296861728880D+02 -.4594167368730D+02  .3992018344910D+02  .3505804665790D+02
  .9819082455120D+01  .9520249318720D+00  .6414117750530D+01 -.9904246834720D+01
  .2225595209190D+01  .2457775466470D+02 -.4590758938890D+02  .1572023523120D+02
  .7735412171270D+01 -.5609609925920D+02
  .2147435658330D+02  .4478407102220D+02  .8445085510640D+01  .4772256666530D+01
 -.1209832784360D+02  .1372843865660D+02 -.1897843755970D+02 -.1598769745310D+02
 -.4491845326570D+01 -.2341903801610D+00 -.2262751140670D+01  .3498210307060D+01
 -.7859289160620D+00 -.1447711043790D+02  .1554668670010D+02 -.7761434516300D+01
 -.4208466245180D+01  .3142617857210D+02
 -.6371967078780D+01 -.9414258510350D+01 -.4780249960530D+00 -.5948517650990D+00
  .2470978285920D+01 -.1466591622800D+01  .5729895881670D+01  .4611352338180D+01
  .1308245320520D+01 -.2825810036060D-02  .4316091161710D+00 -.6702014703890D+00
  .1505620807440D+00  .5235467550520D+01 -.2143109250320D+01  .1819636683810D+01
  .9193052729400D+00 -.8281776836350D+01
  17  17
 -.5798127587410D+02 -.4301889716110D+02 -.2665099729070D+02 -.1329737512890D+02
 -.5974211467540D+01 -.2562781317780D+01 -.1021342683810D+01 -.3970745748470D+00
 -.1139445799350D+00 -.2344761148230D-01 -.4410136983020D-02 -.5837266300750D-03
 -.2858451869850D-04 -.7484663166320D-06 -.2146180870880D-08  .3850147526850D+00
  .4135069963840D+02
  .2194704663210D+00  .2715983198730D+00  .3564201164020D+00  .4797886369540D+00
  .6573723574520D+00  .9096362410030D+00  .1258705331260D+01  .1759038015980D+01
  .2458251875810D+01  .3435401753710D+01  .4800966624100D+01  .6709340618110D+01
  .9376289204730D+01  .1310334416670D+02  .1831189552730D+02  .2559083494550D+02
  .3576313725850D+02
  .7077625647520D-02 -.7605910311870D-01  .2961458953270D-01  .7096709040610D-02
  .1021532746400D-01 -.1026827715040D-01 -.2511751859620D+00 -.1488353509830D+01
 -.4303802289100D+01  .1446262587670D+02 -.3187474444970D+02  .2831212096250D+02
  .1509424280380D+02  .8985891973700D+01  .3141957303390D+02 -.5785020467980D+01
  .8610551148870D-01
 -.3910355476610D-01  .4034061331850D+00 -.1576954155910D+00 -.4707419604840D-01
 -.8738602074310D-01  .1125890503410D+00  .1020627545040D+01  .5548233579090D+01
  .1579666789500D+02 -.5250575915960D+02  .1146477650370D+03 -.1000131163120D+03
 -.5905658620220D+02 -.4486286448830D+02 -.8314773182640D+02  .2098595853780D+02
 -.4557092546250D+00
  .1351462675860D+00 -.1344407370940D+01  .5278733760780D+00  .1866730951400D+00
  .3968229063680D+00 -.5602110067810D+00 -.2407726385170D+01 -.1101170879400D+02
 -.3023221310670D+02  .9782466955130D+02 -.2086376355170D+03  .1737368580810D+03
  .1273553613950D+03  .1234479288220D+03  .1067765182450D+03 -.3902765245740D+02
  .1515515616840D+01
 -.3829667550180D+00  .3738722634270D+01 -.1475366161580D+01 -.5701180013970D+00
 -.1291122973430D+01  .1887869852530D+01  .4906130514120D+01  .1717485428860D+02
  .4377361713400D+02 -.1333015288230D+03  .2685163559980D+03 -.1982780209470D+03
 -.2146931444230D+03 -.2223320722500D+03 -.9887716308160D+02  .5297662973970D+02
 -.4208345573300D+01
  .9792601088960D+00 -.9575241565720D+01  .3809770175300D+01  .1508522522380D+01
  .3533180227940D+01 -.5242608186000D+01 -.1024164999100D+02 -.2666151694150D+02
 -.6020011794170D+02  .1626720344300D+03 -.2874227494700D+03  .1534590378850D+03
  .3015391457750D+03  .2962648739650D+03  .7781952016090D+02 -.6428108698630D+02
  .1076754731940D+02
 -.2288103607450D+01  .2293991345350D+02 -.9272383046350D+01 -.3575777107920D+01
 -.8623838324610D+01  .1289598922550D+02  .2200905422390D+02  .4572342538910D+02
  .8982099661380D+02 -.2022280863620D+03  .2778055488310D+03 -.6816683099070D+02
 -.3622879964720D+03 -.3268835142290D+03 -.5821842685800D+02  .8026137512650D+02
 -.2577589025100D+02
  .4505254278650D+01 -.4778526398360D+02  .1985990130120D+02  .7093163891300D+01
  .1783659074190D+02 -.2684575575980D+02 -.4296585639720D+02 -.7721317658460D+02
 -.1324797195200D+03  .2348331167690D+03 -.2416303663000D+03 -.1375259846920D+02
  .3739340583760D+03  .3130297021040D+03  .4258486047890D+02 -.9947240013600D+02
  .5365287385360D+02
 -.7325557175460D+01  .8689205930390D+02 -.3783887042840D+02 -.1162483405340D+02
 -.3149242899610D+02  .4771692473790D+02  .7303142274540D+02  .1162436437930D+03
  .1665905288910D+03 -.2413327138910D+03  .1938170714650D+03  .6641538988120D+02
 -.3456957052680D+03 -.2733284823770D+03 -.3080912604090D+02  .1142431023930D+03
 -.9753521779360D+02
  .9262801586450D+01 -.1372397636640D+03  .6422925487690D+02  .1495596127710D+02
  .4677845842360D+02 -.7112256965400D+02 -.1026254495830D+03 -.1392012038760D+03
 -.1738195005680D+03  .2250863359650D+03 -.1524371880430D+03 -.8793487333190D+02
  .3014254659180D+03  .2291856105570D+03  .2278604346040D+02 -.1160864716290D+03
  .1543459093580D+03
 -.7268693607220D+01  .1853776181000D+03 -.9659699484370D+02 -.1260987143420D+02
 -.5586443669430D+02  .8394450380330D+02  .1073242874510D+03  .1298792363400D+03
  .1545335328770D+03 -.1931723404250D+03  .1180663863500D+03  .8773053867090D+02
 -.2480267509340D+03 -.1837444719410D+03 -.1680281309650D+02  .1013435696900D+03
 -.2102808549620D+03
 -.2083553350610D+01 -.2117871061900D+03  .1290997746670D+03 -.2917541795990D-01
  .4879836621180D+02 -.6981599097380D+02 -.8249176663620D+02 -.9893090109210D+02
 -.1221860792530D+03  .1544198094250D+03 -.8922546400710D+02 -.7546576278160D+02
  .1925798045040D+03  .1402419609910D+03  .1212891662120D+02 -.7810732680390D+02
  .2465999143850D+03
  .1993239114790D+02  .1994210732070D+03 -.1523541942940D+03  .2305037025080D+02
 -.2223966305160D+02  .3813967867340D+02  .4848751420290D+02  .6491907516100D+02
  .8788625087740D+02 -.1143422040790D+03  .6412139015380D+02  .5815730347820D+02
 -.1398692162780D+03 -.1007071761590D+03 -.8390907745230D+01  .5623452672560D+02
 -.2487853813430D+03
 -.4129170515680D+02 -.1466898959020D+03  .1547064512000D+03 -.4574973613430D+02
 -.3781363152050D+01 -.1225297660040D+02 -.2306049459680D+02 -.3786294192670D+02
 -.5715045024510D+02  .7671391005410D+02 -.4231062749530D+02 -.4018139767380D+02
  .9310358688570D+02  .6653013248980D+02  .5406491729550D+01 -.3989713497160D+02
  .2161972058000D+03
  .5379584162390D+02  .7583665749990D+02 -.1275709713550D+03  .4818805957250D+02
  .1324285844770D+02  .6644015085800D+00  .9051612453190D+01  .1890677502030D+02
  .3207678535770D+02 -.4462908132370D+02  .2441789108830D+02  .2423708713820D+02
 -.5472879969140D+02 -.3891032712100D+02 -.3109399426700D+01  .2916018259310D+02
 -.1624071822390D+03
 -.4579950142120D+02 -.2090784998370D+02  .7657498001720D+02 -.3211303986060D+02
 -.1043940142950D+02  .1826961138880D+01 -.2299153960790D+01 -.6465372492200D+01
 -.1371173480810D+02  .2056692044200D+02 -.1130856117340D+02 -.1204242281380D+02
  .2661940044190D+02  .1886167332680D+02  .1490349127630D+01 -.2257506753810D+02
  .1028469462320D+03
  .2234092497230D+02 -.1735424902770D+01 -.2999684369600D+02  .1374004975540D+02
  .4679102885040D+01 -.1114465608900D+01 -.2973174000090D+00  .1017641158730D+00
  .3125066135520D+01 -.6136037203920D+01  .3507377550870D+01  .4392975917570D+01
 -.9473921210550D+01 -.6698382191330D+01 -.5252495058640D+00  .1604002183060D+02
 -.4807677499560D+02
 -.5190599089220D+01  .2160775960800D+01  .6060110680260D+01 -.2919045041220D+01
 -.9329583204070D+00  .1970806332170D+00  .4326134558030D+00  .9090256560880D+00
  .1731078611600D+00  .6452643360750D+00 -.4476671266410D+00 -.8835491317110D+00
  .1832133992110D+01  .1293769992660D+01  .1009270998850D+00 -.6694233674900D+01
  .1149681983670D+02
Spectral Representation Operator
End Of Spectral Representation Operator
*
