************************************************************************
* This file is part of OpenMolcas.                                     *
*                                                                      *
* OpenMolcas is free software; you can redistribute it and/or modify   *
* it under the terms of the GNU Lesser General Public License, v. 2.1. *
* OpenMolcas is distributed in the hope that it will be useful, but it *
* is provided "as is" and without any express or implied warranties.   *
* For more details see the full text of the license in the file        *
* LICENSE or in <http://www.gnu.org/licenses/>.                        *
************************************************************************
/I.ECP.PETERSON.9s7p7d.5s4p3d.AUG-CC-PVDZ.
IODINE       (8s,6p,6d) -> [4s,3p,2d]
IODINE       (1s,1p,1d)
          53.   2
* S-type functions
    9    5
              2.449790E+03
              3.598080E+02
              1.440580E+01
              9.076320E+00
              2.088100E+00
              1.034980E+00
              3.162840E-01
              1.217190E-01
              4.200000E-02
      4.190000E-04           1.750000E-04           0.000000E+00           0.000000E+00           0.0000000
      2.240000E-03           1.057000E-03           0.000000E+00           0.000000E+00           0.0000000
      3.972230E-01           1.690000E-01           0.000000E+00           0.000000E+00           0.0000000
     -9.322490E-01          -4.217930E-01           0.000000E+00           0.000000E+00           0.0000000
      9.371380E-01           6.388640E-01           0.000000E+00           0.000000E+00           0.0000000
      3.920860E-01           3.201150E-01           0.000000E+00           0.000000E+00           0.0000000
      1.248500E-02          -8.144280E-01           1.000000E+00           0.000000E+00           0.0000000
     -1.329000E-03          -4.897980E-01           0.000000E+00           1.000000E+00           0.0000000
      0.0000000              0.0000000              0.0000000              0.0000000              1.0000000
* P-type functions
    7    4
              1.953010E+01
              1.108820E+01
              2.715630E+00
              1.204300E+00
              3.399450E-01
              1.108810E-01
              3.380000E-02
      5.893400E-02          -1.883600E-02           0.000000E+00           0.0000000
     -2.309300E-01           8.000600E-02           0.000000E+00           0.0000000
      6.648010E-01          -3.066520E-01           0.000000E+00           0.0000000
      4.506730E-01          -1.475940E-01           0.000000E+00           0.0000000
      2.898000E-02           6.075060E-01           0.000000E+00           0.0000000
     -2.889000E-03           5.470490E-01           1.000000E+00           0.0000000
      0.0000000              0.0000000              0.0000000              1.0000000
* D-type functions
    7    3
              4.547650E+01
              1.319280E+01
              4.227410E+00
              1.942800E+00
              8.397710E-01
              3.000000E-01
              1.191000E-01
      4.266000E-03           0.000000E+00           0.0000000
     -1.362500E-02           0.000000E+00           0.0000000
      3.097560E-01           0.000000E+00           0.0000000
      5.097720E-01           0.000000E+00           0.0000000
      2.974610E-01           0.000000E+00           0.0000000
      4.016400E-02           1.000000E+00           0.0000000
      0.0000000              0.0000000              1.0000000
PP,i,28,4;
1; !  G POTENTIAL
2, 1.00000000,0.00000000;
3; ! S-G POTENTIAL
2, 40.03337600,49.98964900;
2, 17.30057600,281.00655600;
2, 8.85172000,61.41673900;
4; ! P-G POTENTIAL
2, 15.72014100,67.41623900;
2, 15.20822200,134.80769600;
2, 8.29418600,14.56654800;
2, 7.75394900,28.96842200;
4; ! D-G POTENTIAL
2, 13.81775100,35.53875600;
2, 13.58780500,53.33975900;
2, 6.94763000,9.71646600;
2, 6.96009900,14.97750000;
4; ! F-G POTENTIAL
2, 18.52295000,-20.17661800;
2, 18.25103500,-26.08807700;
2, 7.55790100,-0.22043400;
2, 7.59740400,-0.22164600;
*
Spectral
End of Spectral
*
/I.ECP.PETERSON.13s12p10d2f.6s5p4d2f.AUG-CC-PVTZ.
IODINE       (12s,11p,9d,1f) -> [5s,4p,3d,1f]
 IODINE       (1s,1p,1d,1f)
          53.   3
* S-type functions
    13    6
              5.546500E+03
              8.382140E+02
              1.821870E+02
              3.121230E+01
              1.953140E+01
              8.240990E+00
              2.194550E+00
              1.109110E+00
              3.746410E-01
              1.770800E-01
              8.106100E-02
              1.001000E-01
              4.120000E-02
      1.560000E-04          -7.300000E-05           0.000000E+00           0.000000E+00           0.000000E+00           0.0000000
      9.860000E-04          -5.080000E-04           0.000000E+00           0.000000E+00           0.000000E+00           0.0000000
      2.792000E-03          -1.158000E-03           0.000000E+00           0.000000E+00           0.000000E+00           0.0000000
     -4.325100E-02           1.219300E-02           0.000000E+00           0.000000E+00           0.000000E+00           0.0000000
      2.341340E-01          -8.785400E-02           0.000000E+00           0.000000E+00           0.000000E+00           0.0000000
     -7.509430E-01           3.382000E-01           0.000000E+00           0.000000E+00           0.000000E+00           0.0000000
      8.829680E-01          -5.765500E-01           0.000000E+00           0.000000E+00           0.000000E+00           0.0000000
      4.620610E-01          -4.092980E-01           0.000000E+00           0.000000E+00           0.000000E+00           0.0000000
      2.228600E-02           5.674590E-01           1.000000E+00           0.000000E+00           0.000000E+00           0.0000000
     -4.353000E-03           6.124890E-01           0.000000E+00           1.000000E+00           0.000000E+00           0.0000000
      1.102000E-03           1.432310E-01           0.000000E+00           0.000000E+00           0.000000E+00           0.0000000
      0.000000E+00           0.000000E+00           0.000000E+00           0.000000E+00           1.000000E+00           0.0000000
      0.0000000              0.0000000              0.0000000              0.0000000              0.0000000              1.0000000
* P-type functions
    12    5
              1.889880E+02
              2.128680E+01
              1.003960E+01
              3.451800E+00
              1.974560E+00
              1.024200E+00
              4.494370E-01
              1.866480E-01
              7.348100E-02
              5.981000E-01
              9.618000E-02
              3.590000E-02
      5.850000E-04          -2.560000E-04           0.000000E+00           0.000000E+00           0.0000000
      3.692300E-02          -1.168200E-02           0.000000E+00           0.000000E+00           0.0000000
     -2.353240E-01           8.319200E-02           0.000000E+00           0.000000E+00           0.0000000
      3.414830E-01          -1.569700E-01           0.000000E+00           0.000000E+00           0.0000000
      5.347880E-01          -2.245180E-01           0.000000E+00           0.000000E+00           0.0000000
      2.651410E-01          -1.144510E-01           0.000000E+00           0.000000E+00           0.0000000
      2.578700E-02           3.753560E-01           0.000000E+00           0.000000E+00           0.0000000
      5.220000E-04           5.751360E-01           0.000000E+00           0.000000E+00           0.0000000
      6.060000E-04           2.459170E-01           0.000000E+00           0.000000E+00           0.0000000
      0.000000E+00           0.000000E+00           1.000000E+00           0.000000E+00           0.0000000
      0.000000E+00           0.000000E+00           0.000000E+00           1.000000E+00           0.0000000
      0.0000000              0.0000000              0.0000000              0.0000000              1.0000000
* D-type functions
    10    4
              1.326620E+02
              3.760540E+01
              1.038910E+01
              6.490170E+00
              3.454510E+00
              1.844130E+00
              9.624780E-01
              4.728530E-01
              1.932000E-01
              7.820000E-02
      5.720000E-04           0.000000E+00           0.000000E+00           0.0000000
      4.402000E-03           0.000000E+00           0.000000E+00           0.0000000
     -4.092200E-02           0.000000E+00           0.000000E+00           0.0000000
      9.966100E-02           0.000000E+00           0.000000E+00           0.0000000
      3.226630E-01           0.000000E+00           0.000000E+00           0.0000000
      4.003430E-01           0.000000E+00           0.000000E+00           0.0000000
      2.683060E-01           0.000000E+00           0.000000E+00           0.0000000
      8.484700E-02           1.000000E+00           0.000000E+00           0.0000000
      7.632000E-03           0.000000E+00           1.000000E+00           0.0000000
      0.0000000              0.0000000              0.0000000              1.0000000
* F-type functions
    2    2
              4.064000E-01
              1.848000E-01
      1.000000E+00           0.0000000
      0.0000000              1.0000000
PP,i,28,4;
1; !  G POTENTIAL
2, 1.00000000,0.00000000;
3; ! S-G POTENTIAL
2, 40.03337600,49.98964900;
2, 17.30057600,281.00655600;
2, 8.85172000,61.41673900;
4; ! P-G POTENTIAL
2, 15.72014100,67.41623900;
2, 15.20822200,134.80769600;
2, 8.29418600,14.56654800;
2, 7.75394900,28.96842200;
4; ! D-G POTENTIAL
2, 13.81775100,35.53875600;
2, 13.58780500,53.33975900;
2, 6.94763000,9.71646600;
2, 6.96009900,14.97750000;
4; ! F-G POTENTIAL
2, 18.52295000,-20.17661800;
2, 18.25103500,-26.08807700;
2, 7.55790100,-0.22043400;
2, 7.59740400,-0.22164600;
*
Spectral
End of Spectral
*
/I.ECP.PETERSON.15s12p13d3f2g.7s7p5d3f2g.AUG-CC-PVQZ.
IODINE       (14s,11p,12d,2f,1g) -> [6s,6p,4d,2f,1g]
IODINE       (1s,1p,1d,1f,1g)
          53.   4
* S-type functions
    15    7
              1.690000E+04
              2.541390E+03
              5.744130E+02
              1.509450E+02
              2.916310E+01
              1.821960E+01
              1.133650E+01
              6.924080E+00
              2.509810E+00
              1.351130E+00
              6.163790E-01
              3.834550E-01
              1.800560E-01
              8.232700E-02
              3.310000E-02
      4.000000E-05           1.900000E-05           0.000000E+00           0.000000E+00           0.000000E+00           0.000000E+00           0.0000000
      2.940000E-04           1.420000E-04           0.000000E+00           0.000000E+00           0.000000E+00           0.000000E+00           0.0000000
      1.214000E-03           5.920000E-04           0.000000E+00           0.000000E+00           0.000000E+00           0.000000E+00           0.0000000
      2.596000E-03           1.243000E-03           0.000000E+00           0.000000E+00           0.000000E+00           0.000000E+00           0.0000000
     -5.362300E-02          -2.272100E-02           0.000000E+00           0.000000E+00           0.000000E+00           0.000000E+00           0.0000000
      3.439170E-01           1.577080E-01           0.000000E+00           0.000000E+00           0.000000E+00           0.000000E+00           0.0000000
     -3.674270E-01          -2.000920E-01           0.000000E+00           0.000000E+00           0.000000E+00           0.000000E+00           0.0000000
     -5.389040E-01          -2.161520E-01           0.000000E+00           0.000000E+00           0.000000E+00           0.000000E+00           0.0000000
      7.095670E-01           4.134390E-01           0.000000E+00           0.000000E+00           0.000000E+00           0.000000E+00           0.0000000
      6.280610E-01           5.345850E-01           0.000000E+00           0.000000E+00           0.000000E+00           0.000000E+00           0.0000000
      9.184200E-02           9.235200E-02           1.000000E+00           0.000000E+00           0.000000E+00           0.000000E+00           0.0000000
     -1.224300E-02          -5.884630E-01           0.000000E+00           1.000000E+00           0.000000E+00           0.000000E+00           0.0000000
      2.875000E-03          -6.192810E-01           0.000000E+00           0.000000E+00           1.000000E+00           0.000000E+00           0.0000000
     -2.890000E-04          -1.513990E-01           0.000000E+00           0.000000E+00           0.000000E+00           1.000000E+00           0.0000000
      0.0000000              0.0000000              0.0000000              0.0000000              0.0000000              0.0000000              1.0000000
* P-type functions
    12    7
              6.491590E+02
              1.480870E+02
              2.010180E+01
              1.044660E+01
              6.358830E+00
              3.048460E+00
              1.559500E+00
              7.689110E-01
              3.548140E-01
              1.547660E-01
              6.469900E-02
              2.570000E-02
      9.500000E-05          -3.200000E-05           0.000000E+00           0.000000E+00           0.000000E+00           0.000000E+00           0.0000000
      6.290000E-04          -2.530000E-04           0.000000E+00           0.000000E+00           0.000000E+00           0.000000E+00           0.0000000
      4.532400E-02          -1.609800E-02           0.000000E+00           0.000000E+00           0.000000E+00           0.000000E+00           0.0000000
     -2.302310E-01           8.991000E-02           0.000000E+00           0.000000E+00           0.000000E+00           0.000000E+00           0.0000000
     -4.960000E-03          -1.565500E-02           0.000000E+00           0.000000E+00           0.000000E+00           0.000000E+00           0.0000000
      5.139270E-01          -2.077830E-01           0.000000E+00           0.000000E+00           0.000000E+00           0.000000E+00           0.0000000
      5.060930E-01          -2.480810E-01           0.000000E+00           0.000000E+00           0.000000E+00           0.000000E+00           0.0000000
      1.316590E-01           4.033400E-02           1.000000E+00           0.000000E+00           0.000000E+00           0.000000E+00           0.0000000
      6.125000E-03           4.515730E-01           0.000000E+00           1.000000E+00           0.000000E+00           0.000000E+00           0.0000000
      1.746000E-03           5.031310E-01           0.000000E+00           0.000000E+00           1.000000E+00           0.000000E+00           0.0000000
      9.200000E-05           1.755330E-01           0.000000E+00           0.000000E+00           0.000000E+00           1.000000E+00           0.0000000
      0.0000000              0.0000000              0.0000000              0.0000000              0.0000000              0.0000000              1.0000000
* D-type functions
    13    5
              5.854450E+02
              1.774680E+02
              6.921930E+01
              2.863920E+01
              1.271530E+01
              5.479270E+00
              3.354930E+00
              1.984230E+00
              1.152540E+00
              6.510170E-01
              3.474450E-01
              1.547000E-01
              6.400000E-02
      2.500000E-05           0.000000E+00           0.000000E+00           0.000000E+00           0.0000000
      2.310000E-04           0.000000E+00           0.000000E+00           0.000000E+00           0.0000000
      1.173000E-03           0.000000E+00           0.000000E+00           0.000000E+00           0.0000000
      5.584000E-03           0.000000E+00           0.000000E+00           0.000000E+00           0.0000000
     -2.383000E-02           0.000000E+00           0.000000E+00           0.000000E+00           0.0000000
      1.168140E-01           0.000000E+00           0.000000E+00           0.000000E+00           0.0000000
      2.727310E-01           0.000000E+00           0.000000E+00           0.000000E+00           0.0000000
      3.401740E-01           0.000000E+00           0.000000E+00           0.000000E+00           0.0000000
      2.686990E-01           0.000000E+00           0.000000E+00           0.000000E+00           0.0000000
      1.298090E-01           1.000000E+00           0.000000E+00           0.000000E+00           0.0000000
      3.304400E-02           0.000000E+00           1.000000E+00           0.000000E+00           0.0000000
      3.067000E-03           0.000000E+00           0.000000E+00           1.000000E+00           0.0000000
      0.0000000              0.0000000              0.0000000              0.0000000              1.0000000
* F-type functions
    3    3
              5.865000E-01
              2.494000E-01
              1.270000E-01
      1.000000E+00           0.000000E+00           0.0000000
      0.000000E+00           1.000000E+00           0.0000000
      0.0000000              0.0000000              1.0000000
* G-type functions
    2    2
              4.730000E-01
              2.338000E-01
      1.000000E+00           0.0000000
      0.0000000              1.0000000
PP,i,28,4;
1; !  G POTENTIAL
2, 1.00000000,0.00000000;
3; ! S-G POTENTIAL
2, 40.03337600,49.98964900;
2, 17.30057600,281.00655600;
2, 8.85172000,61.41673900;
4; ! P-G POTENTIAL
2, 15.72014100,67.41623900;
2, 15.20822200,134.80769600;
2, 8.29418600,14.56654800;
2, 7.75394900,28.96842200;
4; ! D-G POTENTIAL
2, 13.81775100,35.53875600;
2, 13.58780500,53.33975900;
2, 6.94763000,9.71646600;
2, 6.96009900,14.97750000;
4; ! F-G POTENTIAL
2, 18.52295000,-20.17661800;
2, 18.25103500,-26.08807700;
2, 7.55790100,-0.22043400;
2, 7.59740400,-0.22164600;
*
Spectral
End of Spectral
*

