************************************************************************
* This file is part of OpenMolcas.                                     *
*                                                                      *
* OpenMolcas is free software; you can redistribute it and/or modify   *
* it under the terms of the GNU Lesser General Public License, v. 2.1. *
* OpenMolcas is distributed in the hope that it will be useful, but it *
* is provided "as is" and without any express or implied warranties.   *
* For more details see the full text of the license in the file        *
* LICENSE or in <http://www.gnu.org/licenses/>.                        *
************************************************************************
N          2
 16 16
  0.125000000000E+00  0.175912152769E+00  0.247560683936E+00  0.348391462817E+00
  0.490290337845E+00  0.689984230499E+00  0.971012890912E+00  0.136650374406E+01
  0.192307692308E+01  0.270634081184E+01  0.380862590670E+01  0.535986865873E+01
  0.754292827455E+01  0.106151420077E+02  0.149386598602E+02  0.210231345240E+02
 -0.703769505588E+01  0.200635367743E+02  0.251205111166E+02 -0.256248511555E+03
  0.730769712473E+03 -0.128863975732E+04  0.161778500595E+04 -0.155204007742E+04
  0.125457026418E+04 -0.960587315684E+03  0.712667764670E+03 -0.471881669400E+03
  0.257321401021E+03 -0.108557512463E+03  0.318213337724E+02 -0.484458954588E+01
 -0.307134286460E-02  0.171272592343E-01 -0.570233891896E-01  0.380248963844E+00
 -0.271220517448E+01  0.133504005640E+02 -0.473575830209E+02  0.128642542954E+03
 -0.276570794007E+03  0.475701705709E+03 -0.650034808598E+03  0.688802577802E+03
 -0.541280003018E+03  0.293424221131E+03 -0.981036338163E+02  0.166734149536E+02
 -0.201561356976E+02  0.820723678633E+02 -0.148193145276E+03  0.187176402953E+03
 -0.209878348740E+03  0.223168995168E+03 -0.226582710820E+03  0.215473854828E+03
 -0.186237519077E+03  0.144973327221E+03 -0.101589381133E+03  0.630640450048E+02
 -0.333068627094E+02  0.139388857291E+02 -0.406504949711E+01  0.610879027701E+00
 -0.244289999374E-02 -0.447589744152E-01  0.564702091134E+00 -0.274043383724E+01
  0.747080959748E+01 -0.104419605614E+02 -0.676128696274E+01  0.815365387832E+02
 -0.253920582149E+03  0.518843579551E+03 -0.777515575560E+03  0.865507158762E+03
 -0.694588058650E+03  0.377496084621E+03 -0.127694750497E+03  0.218527950643E+02
  0.137475289168E-01 -0.338228531652E+00  0.303441021285E+01 -0.150409679989E+02
  0.496534930530E+02 -0.118975702276E+03  0.212638320234E+03 -0.274411894459E+03
  0.211879099465E+03  0.293345785829E+02 -0.365245634118E+03  0.579763175321E+03
 -0.521138113956E+03  0.294129565749E+03 -0.103091946653E+03  0.182193660485E+02
 -0.236841116873E+02  0.737015669889E+02 -0.129852986799E+03  0.198253251508E+03
 -0.267128733924E+03  0.307651107114E+03 -0.316013762020E+03  0.297603138718E+03
 -0.255678591239E+03  0.199240081386E+03 -0.140056307733E+03  0.871222340060E+02
 -0.460515817261E+02  0.192786868500E+02 -0.562345708787E+01  0.845229655474E+00
  0.703131288159E+00 -0.687329688015E+01  0.341420726026E+02 -0.115563537236E+03
  0.298390392890E+03 -0.618536704701E+03  0.105089951195E+04 -0.146617445310E+04
  0.165822259846E+04 -0.148263960856E+04  0.102260060007E+04 -0.562859250198E+03
  0.283283539985E+03 -0.135542596596E+03  0.472937731406E+02 -0.767757422646E+01
 -0.363298387436E+02  0.224475039130E+03 -0.692864863645E+03  0.144450843313E+04
 -0.231210849717E+04  0.302879096096E+04 -0.333304771719E+04  0.311282615763E+04
 -0.253414520762E+04  0.192523638228E+04 -0.143560665416E+04  0.993115819794E+03
 -0.567957185942E+03  0.238990342859E+03 -0.624493882914E+02  0.675580079233E+01
 -0.572710522647E+02  0.331378514659E+03 -0.937186730428E+03  0.174614880489E+04
 -0.245037006286E+04  0.282055300098E+04 -0.282553259811E+04  0.254676866778E+04
 -0.207570186274E+04  0.149313158180E+04 -0.906442447772E+03  0.459847484767E+03
 -0.237127799019E+03  0.164955743810E+03 -0.105425129982E+03  0.325593665016E+02
 -0.502090372608E+02  0.203187424186E+03 -0.371390160160E+03  0.433533986607E+03
 -0.435267770295E+03  0.464811527538E+03 -0.496994068235E+03  0.480333862396E+03
 -0.415235594926E+03  0.325425796916E+03 -0.230403579787E+03  0.144092745433E+03
 -0.764014878353E+02  0.320425528681E+02 -0.935842507980E+01  0.140797678921E+01
  0.177858693035E+02 -0.136595357084E+03  0.514228987957E+03 -0.126677042019E+04
  0.228441580308E+04 -0.318715387886E+04  0.357883268201E+04 -0.340602099809E+04
  0.290769669932E+04 -0.228855950722E+04  0.163953440652E+04 -0.103463203671E+04
  0.550828303405E+03 -0.231339965705E+03  0.676181202178E+02 -0.101820617177E+02
 -0.221831908168E+01  0.382135836631E+02 -0.218879743034E+03  0.730708694318E+03
 -0.171335290303E+04  0.307545185717E+04 -0.441786503244E+04  0.521252786316E+04
 -0.516891249555E+04  0.445764271485E+04 -0.351638972460E+04  0.262890499356E+04
 -0.179861482895E+04  0.100451339788E+04 -0.383839536366E+03  0.721255840613E+02
 -0.101979559931E+02  0.100619328032E+03 -0.444006211694E+03  0.118072438744E+04
 -0.214430123665E+04  0.289278288431E+04 -0.314653532586E+04  0.297433644895E+04
 -0.255478480245E+04  0.200991847065E+04 -0.142899235594E+04  0.895659792111E+03
 -0.475384538567E+03  0.199485076249E+03 -0.582835581856E+02  0.877110693209E+01
  0.410103903335E+01 -0.462596096994E+02  0.231563923153E+03 -0.733827584476E+03
  0.169902159526E+04 -0.308457408431E+04  0.455261754957E+04 -0.555534366873E+04
  0.562532975611E+04 -0.467607268621E+04  0.307096217357E+04 -0.142243268875E+04
  0.276579612230E+03  0.169988937125E+03 -0.148621876042E+03  0.369748495376E+02
 -0.577890258295E+00  0.669261113330E+01 -0.401169194211E+02  0.162539343136E+03
 -0.495475089798E+03  0.120251188242E+04 -0.239856761135E+04  0.399788825401E+04
 -0.560306098622E+04  0.659156657517E+04 -0.645360322851E+04  0.517595170886E+04
 -0.330892000612E+04  0.159959994323E+04 -0.521822935992E+03  0.854440582510E+02
 -0.880520638459E+02  0.510439514602E+03 -0.144829442069E+04  0.271417163211E+04
 -0.384870008244E+04  0.451065029927E+04 -0.465270721838E+04  0.438623866084E+04
 -0.382756468108E+04  0.307106070966E+04 -0.223243333492E+04  0.143199388673E+04
 -0.755223454457E+03  0.279364853741E+03 -0.493194353983E+02 -0.207829338316E+01
  0.511324271627E-03  0.369072250988E+02  0.372946650759E-09  0.152760286112E+02
  0.400240809888E+01  0.140386536226E-08  0.513281286002E+00  0.250739718042E-01
 -0.727927616516E-01  0.371161562156E-08  0.393379445385E-05  0.266448459671E+00
  0.761966745353E-07 -0.408491494154E+00 -0.408884555160E+01  0.270044597859E-01
 16 16
  0.250000000000E+00  0.353553390593E+00  0.500000000000E+00  0.707106781187E+00
  0.100000000000E+01  0.141421356237E+01  0.200000000000E+01  0.282842712475E+01
  0.400000000000E+01  0.565685424949E+01  0.800000000000E+01  0.113137084990E+02
  0.160000000000E+02  0.226274169980E+02  0.320000000000E+02  0.452548339959E+02
 -0.306316671402E+01  0.159409017680E+02 -0.381886951443E+02  0.476627662200E+02
 -0.629583819987E+00 -0.145715968268E+03  0.397022696781E+03 -0.691258731297E+03
  0.901403369557E+03 -0.904772072101E+03  0.709986092619E+03 -0.448462356279E+03
  0.233660133049E+03 -0.984260548912E+02  0.300285094640E+02 -0.488442058277E+01
 -0.955969050434E-02  0.924648783139E-01 -0.453703015502E+00  0.151840254991E+01
 -0.390070766762E+01  0.814501939709E+01 -0.141613882394E+02  0.204232919665E+02
 -0.233409894636E+02  0.177827394785E+02 -0.519593400615E-01 -0.266534437294E+02
  0.487088798242E+02 -0.493229566831E+02  0.275554600325E+02 -0.549096997270E+01
 -0.103062774697E+02  0.405914825305E+02 -0.820049095061E+02  0.103695796414E+03
 -0.761562357719E+02  0.259268835687E+02  0.513889402469E+01 -0.153360508522E+02
  0.178236386320E+02 -0.170403846120E+02  0.137808550335E+02 -0.946030912884E+01
  0.543402989072E+01 -0.247230966313E+01  0.789381149182E+00 -0.131221058177E+00
 -0.330163658451E-01  0.313994706046E+00 -0.153236601823E+01  0.514792787960E+01
 -0.133975034005E+02  0.286645089235E+02 -0.519487877378E+02  0.805255686459E+02
 -0.105734176605E+03  0.113281369921E+03 -0.895535420003E+02  0.349726791109E+02
  0.246609667726E+02 -0.499277768496E+02  0.301913794539E+02 -0.607359742737E+01
 -0.157208515118E+02  0.716996053887E+02 -0.160907437692E+03  0.248445187569E+03
 -0.326065734925E+03  0.428109023506E+03 -0.565162666981E+03  0.660278495764E+03
 -0.638134425598E+03  0.518749885783E+03 -0.368723342562E+03  0.232571235586E+03
 -0.126859500069E+03  0.559034399324E+02 -0.174865783406E+02  0.286739099828E+01
 -0.117599073291E+00  0.102610483019E+01 -0.473854278859E+01  0.154109296907E+02
 -0.394861416968E+02  0.842713857127E+02 -0.154144425930E+03  0.244408943310E+03
 -0.334931294146E+03  0.389301795689E+03 -0.368300425352E+03  0.261471891987E+03
 -0.117492475579E+03  0.224597777336E+02  0.204612056523E+01 -0.724212715488E+00
 -0.106615277856E+01  0.155934800825E+02 -0.366171358212E+02  0.497337895111E+02
 -0.614400374107E+02  0.812975781704E+02 -0.100432196169E+03  0.104318905845E+03
 -0.920376129284E+02  0.720261575391E+02 -0.511401484641E+02  0.325895312872E+02
 -0.179213977887E+02  0.792869830871E+01 -0.248369587532E+01  0.407436770052E+00
 -0.157296784189E+01  0.973928450450E+01 -0.318056890066E+02  0.746069830699E+02
 -0.143992700257E+03  0.245920008625E+03 -0.383784336802E+03  0.548086441470E+03
 -0.702847848839E+03  0.783714100876E+03 -0.726814528351E+03  0.530324219450E+03
 -0.296013817884E+03  0.129657016839E+03 -0.448160627359E+02  0.932936221756E+01
  0.100705636122E+02 -0.191045781241E+02  0.343569379658E+00  0.205407151880E+02
 -0.645690853862E+01 -0.207628050542E+02  0.281916837435E+02 -0.199343926926E+02
  0.120441905033E+02 -0.854873272012E+01  0.665749090852E+01 -0.469094481780E+01
  0.274062379757E+01 -0.125059696037E+01  0.397933642107E+00 -0.658368040100E-01
 -0.240352988191E+02  0.138741420869E+03 -0.406256072095E+03  0.808410858506E+03
 -0.123400702539E+04  0.154865976640E+04 -0.167792149314E+04  0.162981112484E+04
 -0.145453109077E+04  0.120097988965E+04 -0.914463017882E+03  0.649448143526E+03
 -0.436290107255E+03  0.262547968323E+03 -0.119209661126E+03  0.285296350997E+02
  0.306881118602E+02 -0.126388813656E+03  0.234901249596E+03 -0.246006989317E+03
  0.129050463058E+03  0.491798564122E+02 -0.210460076013E+03  0.301891801893E+03
 -0.309153012228E+03  0.258972273346E+03 -0.188600369998E+03  0.121284576758E+03
 -0.670671241758E+02  0.298218971689E+02 -0.938321766059E+01  0.154464283152E+01
 -0.195692742417E+01  0.138642283052E+02 -0.530274192304E+02  0.146012078131E+03
 -0.321568090823E+03  0.590448898425E+03 -0.912251154636E+03  0.117371376302E+04
 -0.123473375610E+04  0.106544126473E+04 -0.774771380334E+03  0.486933879868E+03
 -0.262682838896E+03  0.114853430937E+03 -0.358085760667E+02  0.586796617640E+01
  0.413642373209E+01 -0.205063558437E+02  0.295324617739E+02  0.457103600397E+02
 -0.292816153010E+03  0.685857149515E+03 -0.104496293407E+04  0.119254646849E+04
 -0.110815628413E+04  0.890300597903E+03 -0.638666695245E+03  0.408467348736E+03
 -0.225093364262E+03  0.997774117679E+02 -0.313096968524E+02  0.514328420692E+01
 -0.134426770693E+02  0.764708185482E+02 -0.218351415258E+03  0.415549447706E+03
 -0.584695986815E+03  0.628731853784E+03 -0.498543417442E+03  0.225608725627E+03
  0.870423235904E+02 -0.305882310345E+03  0.339843576458E+03 -0.229630779630E+03
  0.100010411926E+03 -0.253343231381E+02  0.131593992659E+01  0.975047047689E+00
 -0.278130749736E+00  0.257122597137E+01 -0.124000573902E+02  0.417172174505E+02
 -0.110066947321E+03  0.241949247302E+03 -0.458250523257E+03  0.760962789225E+03
 -0.111410201546E+04  0.143093801618E+04 -0.158660913176E+04  0.147498825080E+04
 -0.109770884010E+04  0.608720888700E+03 -0.222295225521E+03  0.399737544673E+02
 -0.258362862359E+02  0.149314515886E+03 -0.438089800739E+03  0.874723107731E+03
 -0.134295271831E+04  0.170154214203E+04 -0.187093525037E+04  0.185357681741E+04
 -0.168703065790E+04  0.139790929205E+04 -0.101092139182E+04  0.589757820892E+03
 -0.235701153222E+03  0.289388140191E+02  0.292517333506E+02 -0.139122116534E+02
 -0.766982840337E-04 -0.449993683415E+01 -0.132446154966E-09 -0.177623257686E+01
 -0.352148319290E-08 -0.387497566408E+00  0.283242488068E-10 -0.453995109257E-01
  0.119918908904E-09 -0.106568907786E-01 -0.140503765181E-08 -0.103558914577E-05
  0.309336791512E-08 -0.230606649270E-02  0.108503905418E+01  0.100536427679E-01
