************************************************************************
* This file is part of OpenMolcas.                                     *
*                                                                      *
* OpenMolcas is free software; you can redistribute it and/or modify   *
* it under the terms of the GNU Lesser General Public License, v. 2.1. *
* OpenMolcas is distributed in the hope that it will be useful, but it *
* is provided "as is" and without any express or implied warranties.   *
* For more details see the full text of the license in the file        *
* LICENSE or in <http://www.gnu.org/licenses/>.                        *
************************************************************************
*
*********************************************************************************
*                             MCP library                                       *
*       prepared from GAMESS-US (Version 5 December 2014) MCP library files     *
*                    by M. Klobukowski, 21 April 2016                           *
*                                                                               *
* Note: MCP library files same as in GAMESS-US Version 14 FEB 2018 (R1)         *
*                                                                               *
*********************************************************************************
*
********************************************************************************
* for H use cc-pvNZ basis sets T.H. Dunning, Jr. J. Chem. Phys. 90, 1007 (1989).
********************************************************************************
*
*    /H.cc-pVDZ.Dunning.4s1p.2s1p..
*    /H.cc-pVTZ.Dunning.5s2p1d.3s2p1d..
*    /H.cc-pVQZ.Dunning.6s3p2d1f.4s3p2d1f..
*
********************************************************************************
*    group 1. Alkaline metals
********************************************************************************
*
*    /Li.ECP.EFT.4s3p.2s1p.1e-MCP-DZP.
*    /Li.ECP.EFT.4s3p2d.3s2p1d.1e-MCP-TZP.
*    /Li.ECP.EFT.4s3p2d1f.3s3p2d1f.1e-MCP-QZP.
*    /Li.ECP.EFT.5s4p.3s2p.1e-MCP-ADZP.
*    /Li.ECP.EFT.5s4p3d.4s3p2d.1e-MCP-ATZP.
*    /Li.ECP.EFT.5s4p3d2f.4s4p3d2f.1e-MCP-AQZP.
*
*    /Na.ECP.EFT.6s7p.3s2p.9e-MCP-DZP.
*    /Na.ECP.EFT.6s7p2d.3s3p1d.9e-MCP-TZP.
*    /Na.ECP.EFT.6s7p2d1f.3s4p2d1f.9e-MCP-QZP.
*    /Na.ECP.EFT.7s8p.4s3p.9e-MCP-ADZP.
*    /Na.ECP.EFT.7s8p3d.4s4p2d.9e-MCP-ATZP.
*    /Na.ECP.EFT.7s8p3d2f.4s5p3d2f.9e-MCP-AQZP.
*
*    /K.ECP.EFT.7s8p.3s2p.9e-MCP-DZP.
*    /K.ECP.EFT.7s8p2d.3s3p1d.9e-MCP-TZP.
*    /K.ECP.EFT.7s8p2d1f.3s4p2d1f.9e-MCP-QZP.
*    /K.ECP.EFT.8s9p.4s3p.9e-MCP-ADZP.
*    /K.ECP.EFT.8s9p3d.4s4p2d.9e-MCP-ATZP.
*    /K.ECP.EFT.8s9p3d2f.4s5p3d2f.9e-MCP-AQZP.
*
*    /Rb.ECP.EFT.8s9p.3s2p.9e-MCP-DZP.
*    /Rb.ECP.EFT.8s9p2d.3s3p1d.9e-MCP-TZP.
*    /Rb.ECP.EFT.8s9p2d1f.3s4p2d1f.9e-MCP-QZP.
*    /Rb.ECP.EFT.8s9p.3s2p.9e-MCP-ADZP.
*    /Rb.ECP.EFT.9s10p3d.4s4p2d.9e-MCP-ATZP.
*    /Rb.ECP.EFT.9s10p3d2f.4s5p3d2f.9e-MCP-AQZP.
*
*    /Cs.ECP.EFT.9s10p.3s2p.9e-MCP-DZP.
*    /Cs.ECP.EFT.9s10p2d.3s3p1d.9e-MCP-TZP.
*    /Cs.ECP.EFT.9s10p2d1f.3s4p2d1f.9e-MCP-QZP.
*    /Cs.ECP.EFT.9s10p.3s2p.9e-MCP-ADZP.
*    /Cs.ECP.EFT.10s11p3d.4s4p2d.9e-MCP-ATZP.
*    /Cs.ECP.EFT.10s11p3d2f.4s5p3d2f.9e-MCP-AQZP.
*
*    /Fr.ECP.EFT.10s11p.3s2p.9e-MCP-DZP.
*    /Fr.ECP.EFT.10s11p2d.3s3p1d.9e-MCP-TZP.
*    /Fr.ECP.EFT.10s11p2d1f.3s4p2d1f.9e-MCP-QZP.
*    /Fr.ECP.EFT.10s11p.3s2p.9e-MCP-ADZP.
*    /Fr.ECP.EFT.11s12p3d.4s4p2d.9e-MCP-ATZP.
*    /Fr.ECP.EFT.11s12p3d2f.4s5p3d2f.9e-MCP-AQZP.
*
********************************************************************************
*    group 2. Alkaline earth metals
********************************************************************************
*
*    /Be.ECP.EFT.4s3p.2s1p.2e-MCP-DZP.
*    /Be.ECP.EFT.4s4p2d.3s2p1d.2e-MCP-TZP.
*    /Be.ECP.EFT.4s5p2d2f.3s3p2d1f.2e-MCP-QZP.
*    /Be.ECP.EFT.5s4p.3s2p.2e-MCP-ADZP.
*    /Be.ECP.EFT.5s5p3d.4s3p2d.2e-MCP-ATZP.
*    /Be.ECP.EFT.5s6p3d3f.4s4p3d2f.2e-MCP-AQZP.
*
*    /Mg.ECP.EFT.6s6p.3s2p.10e-MCP-DZP.
*    /Mg.ECP.EFT.6s7p2d.3s3p1d.10e-MCP-TZP.
*    /Mg.ECP.EFT.6s8p2d2f.3s4p2d1f.10e-MCP-QZP.
*    /Mg.ECP.EFT.7s7p.4s3p.10e-MCP-ADZP.
*    /Mg.ECP.EFT.7s8p3d.4s4p2d.10e-MCP-ATZP.
*    /Mg.ECP.EFT.7s9p3d3f.4s5p3d2f.10e-MCP-AQZP.
*
*    /Ca.ECP.EFT.7s7p.3s2p.10e-MCP-DZP.
*    /Ca.ECP.EFT.7s8p2d.3s3p1d.10e-MCP-TZP.
*    /Ca.ECP.EFT.7s8p3d1f.3s4p2d1f.10e-MCP-QZP.
*    /Ca.ECP.EFT.8s8p.4s3p.10e-MCP-ADZP.
*    /Ca.ECP.EFT.8s9p3d.4s4p2d.10e-MCP-ATZP.
*    /Ca.ECP.EFT.8s9p4d2f.4s5p3d2f.10e-MCP-AQZP.
*
*    /Sr.ECP.EFT.8s8p.3s2p.10e-MCP-DZP.
*    /Sr.ECP.EFT.8s9p2d.3s3p1d.10e-MCP-TZP.
*    /Sr.ECP.EFT.8s9p3d1f.3s4p2d1f.10e-MCP-QZP.
*    /Sr.ECP.EFT.8s8p.3s2p.10e-MCP-ADZP.
*    /Sr.ECP.EFT.9s10p3d.4s4p2d.10e-MCP-ATZP.
*    /Sr.ECP.EFT.9s10p4d2f.4s5p3d2f.10e-MCP-AQZP.
*
*    /Ba.ECP.EFT.9s10p.3s2p.10e-MCP-DZP.
*    /Ba.ECP.EFT.9s10p3d.3s3p1d.10e-MCP-TZP.
*    /Ba.ECP.EFT.9s11p3d3f.3s4p2d1f.10e-MCP-QZP.
*    /Ba.ECP.EFT.9s10p.3s2p.10e-MCP-ADZP.
*    /Ba.ECP.EFT.10s11p4d.4s4p2d.10e-MCP-ATZP.
*    /Ba.ECP.EFT.10s12p4d4f.4s5p3d2f.10e-MCP-AQZP.
*
*    /Ra.ECP.EFT.10s11p.3s2p.10e-MCP-DZP.
*    /Ra.ECP.EFT.10s11p3d.3s3p1d.10e-MCP-TZP.
*    /Ra.ECP.EFT.10s12p3d3f.3s4p2d1f.10e-MCP-QZP.
*    /Ra.ECP.EFT.10s11p.3s2p.10e-MCP-ADZP.
*    /Ra.ECP.EFT.11s12p4d.4s4p2d.10e-MCP-ATZP.
*    /Ra.ECP.EFT.11s13p4d4f.4s5p3d2f.10e-MCP-AQZP.
*
********************************************************************************
*    group 13.
********************************************************************************
*
*    /B.ECP.EFT.4s4p2d.2s2p1d.3e-MCP-DZP.
*    /B.ECP.EFT.4s4p3d2f.3s3p2d1f.3e-MCP-TZP.
*    /B.ECP.EFT.4s4p4d3f2g.3s3p3d2f1g.3e-MCP-QZP.
*    /B.ECP.EFT.5s5p3d.3s3p2d.3e-MCP-ADZP.
*    /B.ECP.EFT.5s5p4d3f.4s4p3d2f.3e-MCP-ATZP.
*    /B.ECP.EFT.5s5p5d4f3g.4s4p4d3f2g.3e-MCP-AQZP.
*
*    /Al.ECP.EFT.4s4p3d.2s2p1d.3e-MCP-DZP.
*    /Al.ECP.EFT.4s4p4d2f.3s3p2d1f.3e-MCP-TZP.
*    /Al.ECP.EFT.4s4p5d2f2g.3s3p3d2f1g.3e-MCP-QZP.
*    /Al.ECP.EFT.5s5p4d.3s3p2d.3e-MCP-ADZP.
*    /Al.ECP.EFT.5s5p5d3f.4s4p3d2f.3e-MCP-ATZP.
*    /Al.ECP.EFT.5s5p6d3f3g.4s4p4d3f2g.3e-MCP-AQZP.
*
*    /Ga.ECP.EFT.7s6p7d.3s3p2d.13e-MCP-DZP.
*    /Ga.ECP.EFT.7s6p8d2f.4s4p3d1f.13e-MCP-TZP.
*    /Ga.ECP.EFT.7s6p8d2f2g.4s4p4d2f1g.13e-MCP-QZP.
*    /Ga.ECP.EFT.7s6p7d.3s3p2d.13e-MCP-ADZP.
*    /Ga.ECP.EFT.8s7p9d3f.5s5p4d2f.13e-MCP-ATZP.
*    /Ga.ECP.EFT.8s7p9d3f3g.5s5p5d3f2g.13e-MCP-AQZP.
*
*    /In.ECP.EFT.8s7p8d.3s3p2d.13e-MCP-DZP.
*    /In.ECP.EFT.8s7p8d2f.4s4p3d1f.13e-MCP-TZP.
*    /In.ECP.EFT.8s7p8d2f2g.4s4p3d2f1g.13e-MCP-QZP.
*    /In.ECP.EFT.8s7p8d.3s3p2d.13e-MCP-ADZP.
*    /In.ECP.EFT.9s8p9d3f.5s5p4d2f.13e-MCP-ATZP.
*    /In.ECP.EFT.9s8p9d3f3g.5s5p4d3f2g.13e-MCP-AQZP.
*
*    /Tl.ECP.EFT.9s8p10d.3s3p2d.13e-MCP-DZP.
*    /Tl.ECP.EFT.9s8p10d3f.4s4p3d1f.13e-MCP-TZP.
*    /Tl.ECP.EFT.9s8p11d3f2g.4s4p4d2f1g.13e-MCP-QZP.
*    /Tl.ECP.EFT.9s8p10d.3s3p2d.13e-MCP-ADZP.
*    /Tl.ECP.EFT.10s9p11d4f.5s5p4d2f.13e-MCP-ATZP.
*    /Tl.ECP.EFT.10s9p12d4f3g.5s5p5d3f2g.13e-MCP-AQZP.
*
********************************************************************************
*    group 14.
********************************************************************************
*
*    /C.ECP.EFT.4s4p2d.2s2p1d.4e-MCP-DZP.
*    /C.ECP.EFT.4s4p3d2f.3s3p2d1f.4e-MCP-TZP.
*    /C.ECP.EFT.4s4p4d3f2g.3s3p3d2f1g.4e-MCP-QZP.
*    /C.ECP.EFT.5s5p3d.3s3p2d.4e-MCP-ADZP.
*    /C.ECP.EFT.5s5p4d3f.4s4p3d2f.4e-MCP-ATZP.
*    /C.ECP.EFT.5s5p5d4f3g.4s4p4d3f2g.4e-MCP-AQZP.
*
*    /Si.ECP.EFT.4s4p3d.2s2p1d.4e-MCP-DZP.
*    /Si.ECP.EFT.4s4p4d2f.3s3p2d1f.4e-MCP-TZP.
*    /Si.ECP.EFT.4s4p5d2f2g.3s3p3d2f1g.4e-MCP-QZP.
*    /Si.ECP.EFT.5s5p4d.3s3p2d.4e-MCP-ADZP.
*    /Si.ECP.EFT.5s5p5d3f.4s4p3d2f.4e-MCP-ATZP.
*    /Si.ECP.EFT.5s5p6d3f3g.4s4p4d3f2g.4e-MCP-AQZP.
*
*    /Ge.ECP.EFT.7s6p7d.3s3p2d.14e-MCP-DZP.
*    /Ge.ECP.EFT.7s6p8d2f.4s4p3d1f.14e-MCP-TZP.
*    /Ge.ECP.EFT.7s6p8d2f2g.4s4p4d2f1g.14e-MCP-QZP.
*    /Ge.ECP.EFT.7s6p7d.3s3p2d.14e-MCP-ADZP.
*    /Ge.ECP.EFT.8s7p9d3f.5s5p4d2f.14e-MCP-ATZP.
*    /Ge.ECP.EFT.8s7p9d3f3g.5s5p5d3f2g.14e-MCP-AQZP.
*
*    /Sn.ECP.EFT.8s7p8d.3s3p2d.14e-MCP-DZP.
*    /Sn.ECP.EFT.8s7p8d2f.4s4p3d1f.14e-MCP-TZP.
*    /Sn.ECP.EFT.8s7p8d2f2g.4s4p3d2f1g.14e-MCP-QZP.
*    /Sn.ECP.EFT.8s7p8d.3s3p2d.14e-MCP-ADZP.
*    /Sn.ECP.EFT.9s8p9d3f.5s5p4d2f.14e-MCP-ATZP.
*    /Sn.ECP.EFT.9s8p9d3f3g.5s5p4d3f2g.14e-MCP-AQZP.
*
*    /Pb.ECP.EFT.9s8p10d.3s3p2d.14e-MCP-DZP.
*    /Pb.ECP.EFT.9s8p10d3f.4s4p3d1f.14e-MCP-TZP.
*    /Pb.ECP.EFT.9s8p11d3f2g.4s4p4d2f1g.14e-MCP-QZP.
*    /Pb.ECP.EFT.9s8p10d.3s3p2d.14e-MCP-ADZP.
*    /Pb.ECP.EFT.10s9p11d4f.5s5p4d2f.14e-MCP-ATZP.
*    /Pb.ECP.EFT.10s9p12d4f3g.5s5p5d3f2g.14e-MCP-AQZP.
*
********************************************************************************
*    group 15. Pnictogen atoms
********************************************************************************
*
*    /N.ECP.EFT.4s4p2d.2s2p1d.5e-MCP-DZP.
*    /N.ECP.EFT.4s4p3d2f.3s3p2d1f.5e-MCP-TZP.
*    /N.ECP.EFT.4s4p4d3f2g.3s3p3d2f1g.5e-MCP-QZP.
*    /N.ECP.EFT.5s5p3d.3s3p2d.5e-MCP-ADZP.
*    /N.ECP.EFT.5s5p4d3f.4s4p3d2f.5e-MCP-ATZP.
*    /N.ECP.EFT.5s5p5d4f3g.4s4p4d3f2g.5e-MCP-AQZP.
*
*    /P.ECP.EFT.4s4p3d.2s2p1d.5e-MCP-DZP.
*    /P.ECP.EFT.4s4p4d2f.3s3p2d1f.5e-MCP-TZP.
*    /P.ECP.EFT.4s4p5d2f2g.3s3p3d2f1g.5e-MCP-QZP.
*    /P.ECP.EFT.5s5p4d.3s3p2d.5e-MCP-ADZP.
*    /P.ECP.EFT.5s5p5d3f.4s4p3d2f.5e-MCP-ATZP.
*    /P.ECP.EFT.5s5p6d3f3g.4s4p4d3f2g.5e-MCP-AQZP.
*
*    /As.ECP.EFT.7s6p7d.3s3p2d.15e-MCP-DZP.
*    /As.ECP.EFT.7s6p8d2f.4s4p3d1f.15e-MCP-TZP.
*    /As.ECP.EFT.7s6p8d2f2g.4s4p4d2f1g.15e-MCP-QZP.
*    /As.ECP.EFT.7s6p7d.3s3p2d.15e-MCP-ADZP.
*    /As.ECP.EFT.8s7p9d3f.5s5p4d2f.15e-MCP-ATZP.
*    /As.ECP.EFT.8s7p9d3f3g.5s5p5d3f2g.15e-MCP-AQZP.
*
*    /Sb.ECP.EFT.8s7p8d.3s3p2d.15e-MCP-DZP.
*    /Sb.ECP.EFT.8s7p8d2f.4s4p3d1f.15e-MCP-TZP.
*    /Sb.ECP.EFT.8s7p8d2f2g.4s4p3d2f1g.15e-MCP-QZP.
*    /Sb.ECP.EFT.8s7p8d.3s3p2d.15e-MCP-ADZP.
*    /Sb.ECP.EFT.9s8p9d3f.5s5p4d2f.15e-MCP-ATZP.
*    /Sb.ECP.EFT.9s8p9d3f3g.5s5p4d3f2g.15e-MCP-AQZP.
*
*    /Bi.ECP.EFT.9s8p10d.3s3p2d.15e-MCP-DZP.
*    /Bi.ECP.EFT.9s8p10d3f.4s4p3d1f.15e-MCP-TZP.
*    /Bi.ECP.EFT.9s8p11d3f2g.4s4p4d2f1g.15e-MCP-QZP.
*    /Bi.ECP.EFT.9s8p10d.3s3p2d.15e-MCP-ADZP.
*    /Bi.ECP.EFT.10s9p11d4f.5s5p4d2f.15e-MCP-ATZP.
*    /Bi.ECP.EFT.10s9p12d4f3g.5s5p5d3f2g.15e-MCP-AQZP.
*
********************************************************************************
*    group 16. Chalcogen atoms
********************************************************************************
*
*    /O.ECP.EFT.4s4p2d.2s2p1d.6e-MCP-DZP.
*    /O.ECP.EFT.4s4p3d2f.3s3p2d1f.6e-MCP-TZP.
*    /O.ECP.EFT.4s4p4d3f2g.3s3p3d2f1g.6e-MCP-QZP.
*    /O.ECP.EFT.5s5p3d.3s3p2d.6e-MCP-ADZP.
*    /O.ECP.EFT.5s5p4d3f.4s4p3d2f.6e-MCP-ATZP.
*    /O.ECP.EFT.5s5p5d4f3g.4s4p4d3f2g.6e-MCP-AQZP.
*
*    /S.ECP.EFT.4s4p3d.2s2p1d.6e-MCP-DZP.
*    /S.ECP.EFT.4s4p4d2f.3s3p2d1f.6e-MCP-TZP.
*    /S.ECP.EFT.4s4p5d2f2g.3s3p3d2f1g.6e-MCP-QZP.
*    /S.ECP.EFT.5s5p4d.3s3p2d.6e-MCP-ADZP.
*    /S.ECP.EFT.5s5p5d3f.4s4p3d2f.6e-MCP-ATZP.
*    /S.ECP.EFT.5s5p6d3f3g.4s4p4d3f2g.6e-MCP-AQZP.
*
*    /Se.ECP.EFT.7s6p7d.3s3p2d.16e-MCP-DZP.
*    /Se.ECP.EFT.7s6p8d2f.4s4p3d1f.16e-MCP-TZP.
*    /Se.ECP.EFT.7s6p8d2f2g.4s4p4d2f1g.16e-MCP-QZP.
*    /Se.ECP.EFT.7s6p7d.3s3p2d.16e-MCP-ADZP.
*    /Se.ECP.EFT.8s7p9d3f.5s5p4d2f.16e-MCP-ATZP.
*    /Se.ECP.EFT.8s7p9d3f3g.5s5p5d3f2g.16e-MCP-AQZP.
*
*    /Te.ECP.EFT.8s7p8d.3s3p2d.16e-MCP-DZP.
*    /Te.ECP.EFT.8s7p8d2f.4s4p3d1f.16e-MCP-TZP.
*    /Te.ECP.EFT.8s7p8d2f2g.4s4p3d2f1g.16e-MCP-QZP.
*    /Te.ECP.EFT.8s7p8d.3s3p2d.16e-MCP-ADZP.
*    /Te.ECP.EFT.9s8p9d3f.5s5p4d2f.16e-MCP-ATZP.
*    /Te.ECP.EFT.9s8p9d3f3g.5s5p4d3f2g.16e-MCP-AQZP.
*
*    /Po.ECP.EFT.9s8p10d.3s3p2d.16e-MCP-DZP.
*    /Po.ECP.EFT.9s8p10d3f.4s4p3d1f.16e-MCP-TZP.
*    /Po.ECP.EFT.9s8p11d3f2g.4s4p4d2f1g.16e-MCP-QZP.
*    /Po.ECP.EFT.9s8p10d.3s3p2d.16e-MCP-ADZP.
*    /Po.ECP.EFT.10s9p11d4f.5s5p4d2f.16e-MCP-ATZP.
*    /Po.ECP.EFT.10s9p12d4f3g.5s5p5d3f2g.16e-MCP-AQZP.
*
********************************************************************************
*    group 17. Halogen atoms
********************************************************************************
*
*    /F.ECP.EFT.4s4p2d.2s2p1d.7e-MCP-DZP.
*    /F.ECP.EFT.4s4p3d2f.3s3p2d1f.7e-MCP-TZP.
*    /F.ECP.EFT.4s4p4d3f2g.3s3p3d2f1g.7e-MCP-QZP.
*    /F.ECP.EFT.5s5p3d.3s3p2d.7e-MCP-ADZP.
*    /F.ECP.EFT.5s5p4d3f.4s4p3d2f.7e-MCP-ATZP.
*    /F.ECP.EFT.5s5p5d4f3g.4s4p4d3f2g.7e-MCP-AQZP.
*
*    /Cl.ECP.EFT.4s4p3d.2s2p1d.7e-MCP-DZP.
*    /Cl.ECP.EFT.4s4p4d2f.3s3p2d1f.7e-MCP-TZP.
*    /Cl.ECP.EFT.4s4p5d2f2g.3s3p3d2f1g.7e-MCP-QZP.
*    /Cl.ECP.EFT.5s5p4d.3s3p2d.7e-MCP-ADZP.
*    /Cl.ECP.EFT.5s5p5d3f.4s4p3d2f.7e-MCP-ATZP.
*    /Cl.ECP.EFT.5s5p6d3f3g.4s4p4d3f2g.7e-MCP-AQZP.
*
*    /Br.ECP.EFT.7s6p7d.3s3p2d.17e-MCP-DZP.
*    /Br.ECP.EFT.7s6p8d2f.4s4p3d1f.17e-MCP-TZP.
*    /Br.ECP.EFT.7s6p8d2f2g.4s4p4d2f1g.17e-MCP-QZP.
*    /Br.ECP.EFT.7s6p7d.3s3p2d.17e-MCP-ADZP.
*    /Br.ECP.EFT.8s7p9d3f.5s5p4d2f.17e-MCP-ATZP.
*    /Br.ECP.EFT.8s7p9d3f3g.5s5p5d3f2g.17e-MCP-AQZP.
*
*    /I.ECP.EFT.8s7p8d.3s3p2d.17e-MCP-DZP.
*    /I.ECP.EFT.8s7p8d2f.4s4p3d1f.17e-MCP-TZP.
*    /I.ECP.EFT.8s7p8d2f2g.4s4p3d2f1g.17e-MCP-QZP.
*    /I.ECP.EFT.8s7p8d.3s3p2d.17e-MCP-ADZP.
*    /I.ECP.EFT.9s8p9d3f.5s5p4d2f.17e-MCP-ATZP.
*    /I.ECP.EFT.9s8p9d3f3g.5s5p4d3f2g.17e-MCP-AQZP.
*
*    /At.ECP.EFT.9s8p10d.3s3p2d.17e-MCP-DZP.
*    /At.ECP.EFT.9s8p10d3f.4s4p3d1f.17e-MCP-TZP.
*    /At.ECP.EFT.9s8p11d3f2g.4s4p4d2f1g.17e-MCP-QZP.
*    /At.ECP.EFT.9s8p10d.3s3p2d.17e-MCP-ADZP.
*    /At.ECP.EFT.10s9p11d4f.5s5p4d2f.17e-MCP-ATZP.
*    /At.ECP.EFT.10s9p12d4f3g.5s5p5d3f2g.17e-MCP-AQZP.
*
********************************************************************************
*    group 18. Rare-gas atoms
********************************************************************************
*
*    /Ne.ECP.EFT.4s4p2d.2s2p1d.8e-MCP-DZP.
*    /Ne.ECP.EFT.4s4p3d2f.3s3p2d1f.8e-MCP-TZP.
*    /Ne.ECP.EFT.4s4p4d3f2g.3s3p3d2f1g.8e-MCP-QZP.
*    /Ne.ECP.EFT.5s5p3d.3s3p2d.8e-MCP-ADZP.
*    /Ne.ECP.EFT.5s5p4d3f.4s4p3d2f.8e-MCP-ATZP.
*    /Ne.ECP.EFT.5s5p5d4f3g.4s4p4d3f2g.8e-MCP-AQZP.
*
*    /Ar.ECP.EFT.4s4p3d.2s2p1d.8e-MCP-DZP.
*    /Ar.ECP.EFT.4s4p4d2f.3s3p2d1f.8e-MCP-TZP.
*    /Ar.ECP.EFT.4s4p5d2f2g.3s3p3d2f1g.8e-MCP-QZP.
*    /Ar.ECP.EFT.5s5p4d.3s3p2d.8e-MCP-ADZP.
*    /Ar.ECP.EFT.5s5p5d3f.4s4p3d2f.8e-MCP-ATZP.
*    /Ar.ECP.EFT.5s5p6d3f3g.4s4p4d3f2g.8e-MCP-AQZP.
*
*    /Kr.ECP.EFT.7s6p7d.3s3p2d.18e-MCP-DZP.
*    /Kr.ECP.EFT.7s6p8d2f.4s4p3d1f.18e-MCP-TZP.
*    /Kr.ECP.EFT.7s6p8d2f2g.4s4p4d2f1g.18e-MCP-QZP.
*    /Kr.ECP.EFT.7s6p7d.3s3p2d.18e-MCP-ADZP.
*    /Kr.ECP.EFT.8s7p9d3f.5s5p4d2f.18e-MCP-ATZP.
*    /Kr.ECP.EFT.8s7p9d3f3g.5s5p5d3f2g.18e-MCP-AQZP.
*
*    /Xe.ECP.EFT.8s7p8d.3s3p2d.18e-MCP-DZP.
*    /Xe.ECP.EFT.8s7p8d2f.4s4p3d1f.18e-MCP-TZP.
*    /Xe.ECP.EFT.8s7p8d2f2g.4s4p3d2f1g.18e-MCP-QZP.
*    /Xe.ECP.EFT.8s7p8d.3s3p2d.18e-MCP-ADZP.
*    /Xe.ECP.EFT.9s8p9d3f.5s5p4d2f.18e-MCP-ATZP.
*    /Xe.ECP.EFT.9s8p9d3f3g.5s5p4d3f2g.18e-MCP-AQZP.
*
*    /Rn.ECP.EFT.9s8p10d.3s3p2d.18e-MCP-DZP.
*    /Rn.ECP.EFT.9s8p10d3f.4s4p3d1f.18e-MCP-TZP.
*    /Rn.ECP.EFT.9s8p11d3f2g.4s4p4d2f1g.18e-MCP-QZP.
*    /Rn.ECP.EFT.9s8p10d.3s3p2d.18e-MCP-ADZP.
*    /Rn.ECP.EFT.10s9p11d4f.5s5p4d2f.18e-MCP-ATZP.
*    /Rn.ECP.EFT.10s9p12d4f3g.5s5p5d3f2g.18e-MCP-AQZP.
*
********************************************************************************
*    first block (3d) transition metal atoms
********************************************************************************
*
*    /Sc.ECP.EFT.6s6p6d2f.4s2p4d1f.11e-MCP-TZP.
*    /Sc.ECP.EFT.6s6p6d4f2g.4s3p4d2f1g.11e-MCP-QZP.
*    /Sc.ECP.EFT.7s7p7d3f.5s3p5d2f.11e-MCP-ATZP.
*    /Sc.ECP.EFT.7s7p7d5f3g.5s4p5d3f2g.11e-MCP-AQZP.
*
*    /Ti.ECP.EFT.6s6p6d2f.4s2p4d1f.12e-MCP-TZP.
*    /Ti.ECP.EFT.6s6p6d4f2g.4s3p4d2f1g.12e-MCP-QZP.
*    /Ti.ECP.EFT.7s7p7d3f.5s3p5d2f.12e-MCP-ATZP.
*    /Ti.ECP.EFT.7s7p7d5f3g.5s4p5d3f2g.12e-MCP-AQZP.
*
*    /V.ECP.EFT.6s6p6d2f.4s2p4d1f.13e-MCP-TZP.
*    /V.ECP.EFT.6s6p6d4f2g.4s3p4d2f1g.13e-MCP-QZP.
*    /V.ECP.EFT.7s7p7d3f.5s3p5d2f.13e-MCP-ATZP.
*    /V.ECP.EFT.7s7p7d5f3g.5s4p5d3f2g.13e-MCP-AQZP.
*
*    /Cr.ECP.EFT.6s6p6d2f.4s2p4d1f.14e-MCP-TZP.
*    /Cr.ECP.EFT.6s6p6d4f2g.4s3p4d2f1g.14e-MCP-QZP.
*    /Cr.ECP.EFT.7s7p7d3f.5s3p5d2f.14e-MCP-ATZP.
*    /Cr.ECP.EFT.7s7p7d5f3g.5s4p5d3f2g.14e-MCP-AQZP.
*
*    /Mn.ECP.EFT.6s6p6d2f.4s2p4d1f.15e-MCP-TZP.
*    /Mn.ECP.EFT.6s6p6d4f2g.4s3p4d2f1g.15e-MCP-QZP.
*    /Mn.ECP.EFT.7s7p7d3f.5s3p5d2f.15e-MCP-ATZP.
*    /Mn.ECP.EFT.7s7p7d5f3g.5s4p5d3f2g.15e-MCP-AQZP.
*
*    /Fe.ECP.EFT.6s6p6d2f.4s2p4d1f.16e-MCP-TZP.
*    /Fe.ECP.EFT.6s6p6d4f2g.4s3p4d2f1g.16e-MCP-QZP.
*    /Fe.ECP.EFT.7s7p7d3f.5s3p5d2f.16e-MCP-ATZP.
*    /Fe.ECP.EFT.7s7p7d5f3g.5s4p5d3f2g.16e-MCP-AQZP.
*
*    /Co.ECP.EFT.6s6p6d2f.4s2p4d1f.17e-MCP-TZP.
*    /Co.ECP.EFT.6s6p6d4f2g.4s3p4d2f1g.17e-MCP-QZP.
*    /Co.ECP.EFT.7s7p7d3f.5s3p5d2f.17e-MCP-ATZP.
*    /Co.ECP.EFT.7s7p7d5f3g.5s4p5d3f2g.17e-MCP-AQZP.
*
*    /Ni.ECP.EFT.6s6p6d2f.4s2p4d1f.18e-MCP-TZP.
*    /Ni.ECP.EFT.6s6p6d4f2g.4s3p4d2f1g.18e-MCP-QZP.
*    /Ni.ECP.EFT.7s7p7d3f.5s3p5d2f.18e-MCP-ATZP.
*    /Ni.ECP.EFT.7s7p7d5f3g.5s4p5d3f2g.18e-MCP-AQZP.
*
*    /Cu.ECP.EFT.6s6p6d2f.4s2p4d1f.19e-MCP-TZP.
*    /Cu.ECP.EFT.6s6p6d4f2g.4s3p4d2f1g.19e-MCP-QZP.
*    /Cu.ECP.EFT.7s7p7d3f.5s3p5d2f.19e-MCP-ATZP.
*    /Cu.ECP.EFT.7s7p7d5f3g.5s4p5d3f2g.19e-MCP-AQZP.
*
*    /Zn.ECP.EFT.6s6p6d2f.4s2p4d1f.20e-MCP-TZP.
*    /Zn.ECP.EFT.6s6p6d4f2g.4s3p4d2f1g.20e-MCP-QZP.
*    /Zn.ECP.EFT.7s7p7d3f.5s3p5d2f.20e-MCP-ATZP.
*    /Zn.ECP.EFT.7s7p7d5f3g.5s4p5d3f2g.20e-MCP-AQZP.
*
********************************************************************************
*    second block (4d) transition metal atoms
********************************************************************************
*
*    /Y.ECP.EFT.8s7p6d3f.4s2p4d1f.11e-MCP-TZP.
*    /Y.ECP.EFT.8s7p6d3f2g.4s3p4d2f1g.11e-MCP-QZP.
*    /Y.ECP.EFT.9s8p7d4f.5s3p5d2f.11e-MCP-ATZP.
*    /Y.ECP.EFT.9s8p7d4f3g.5s4p5d3f2g.11e-MCP-AQZP.
*
*    /Zr.ECP.EFT.8s7p6d3f.4s2p4d1f.12e-MCP-TZP.
*    /Zr.ECP.EFT.8s7p6d3f2g.4s3p4d2f1g.12e-MCP-QZP.
*    /Zr.ECP.EFT.9s8p7d4f.5s3p5d2f.12e-MCP-ATZP.
*    /Zr.ECP.EFT.9s8p7d4f3g.5s4p5d3f2g.12e-MCP-AQZP.
*
*    /Nb.ECP.EFT.8s7p6d3f.4s2p4d1f.13e-MCP-TZP.
*    /Nb.ECP.EFT.8s7p6d3f2g.4s3p4d2f1g.13e-MCP-QZP.
*    /Nb.ECP.EFT.9s8p7d4f.5s3p5d2f.13e-MCP-ATZP.
*    /Nb.ECP.EFT.9s8p7d4f3g.5s4p5d3f2g.13e-MCP-AQZP.
*
*    /Mo.ECP.EFT.8s7p6d3f.4s2p4d1f.14e-MCP-TZP.
*    /Mo.ECP.EFT.8s7p6d3f2g.4s3p4d2f1g.14e-MCP-QZP.
*    /Mo.ECP.EFT.9s8p7d4f.5s3p5d2f.14e-MCP-ATZP.
*    /Mo.ECP.EFT.9s8p7d4f3g.5s4p5d3f2g.14e-MCP-AQZP.
*
*    /Tc.ECP.EFT.8s7p6d3f.4s2p4d1f.15e-MCP-TZP.
*    /Tc.ECP.EFT.8s7p6d3f2g.4s3p4d2f1g.15e-MCP-QZP.
*    /Tc.ECP.EFT.9s8p7d4f.5s3p5d2f.15e-MCP-ATZP.
*    /Tc.ECP.EFT.9s8p7d4f3g.5s4p5d3f2g.15e-MCP-AQZP.
*
*    /Ru.ECP.EFT.8s7p6d3f.4s2p4d1f.16e-MCP-TZP.
*    /Ru.ECP.EFT.8s7p6d3f2g.4s3p4d2f1g.16e-MCP-QZP.
*    /Ru.ECP.EFT.9s8p7d4f.5s3p5d2f.16e-MCP-ATZP.
*    /Ru.ECP.EFT.9s8p7d4f3g.5s4p5d3f2g.16e-MCP-AQZP.
*
*    /Rh.ECP.EFT.8s7p6d3f.4s2p4d1f.17e-MCP-TZP.
*    /Rh.ECP.EFT.8s7p6d3f2g.4s3p4d2f1g.17e-MCP-QZP.
*    /Rh.ECP.EFT.9s8p7d4f.5s3p5d2f.17e-MCP-ATZP.
*    /Rh.ECP.EFT.9s8p7d4f3g.5s4p5d3f2g.17e-MCP-AQZP.
*
*    /Pd.ECP.EFT.8s7p6d3f.4s2p4d1f.18e-MCP-TZP.
*    /Pd.ECP.EFT.8s7p6d3f2g.4s3p4d2f1g.18e-MCP-QZP.
*    /Pd.ECP.EFT.9s8p7d4f.5s3p5d2f.18e-MCP-ATZP.
*    /Pd.ECP.EFT.9s8p7d4f3g.5s4p5d3f2g.18e-MCP-AQZP.
*
*    /Ag.ECP.EFT.8s7p6d3f.4s2p4d1f.19e-MCP-TZP.
*    /Ag.ECP.EFT.8s7p6d3f2g.4s3p4d2f1g.19e-MCP-QZP.
*    /Ag.ECP.EFT.9s8p7d4f.5s3p5d2f.19e-MCP-ATZP.
*    /Ag.ECP.EFT.9s8p7d4f3g.5s4p5d3f2g.19e-MCP-AQZP.
*
*    /Cd.ECP.EFT.8s7p6d3f.4s2p4d1f.20e-MCP-TZP.
*    /Cd.ECP.EFT.8s7p6d3f2g.4s3p4d2f1g.20e-MCP-QZP.
*    /Cd.ECP.EFT.9s8p7d4f.5s3p5d2f.20e-MCP-ATZP.
*    /Cd.ECP.EFT.9s8p7d4f3g.5s4p5d3f2g.20e-MCP-AQZP.
*
********************************************************************************
*    third block (5d) transition metal atoms
********************************************************************************
*
*    /Hf.ECP.EFT.8s10p6d5f.4s2p4d1f.12e-MCP-TZP.
*    /Hf.ECP.EFT.8s11p6d6f2g.4s3p4d2f1g.12e-MCP-QZP.
*    /Hf.ECP.EFT.9s11p7d6f.5s3p5d2f.12e-MCP-ATZP.
*    /Hf.ECP.EFT.9s12p7d7f3g.5s4p5d3f2g.12e-MCP-AQZP.
*
*    /Ta.ECP.EFT.8s10p6d5f.4s2p4d1f.13e-MCP-TZP.
*    /Ta.ECP.EFT.8s11p6d6f2g.4s3p4d2f1g.13e-MCP-QZP.
*    /Ta.ECP.EFT.9s11p7d6f.5s3p5d2f.13e-MCP-ATZP.
*    /Ta.ECP.EFT.9s12p7d7f3g.5s4p5d3f2g.13e-MCP-AQZP.
*
*    /W.ECP.EFT.8s10p6d5f.4s2p4d1f.14e-MCP-TZP.
*    /W.ECP.EFT.8s11p6d6f2g.4s3p4d2f1g.14e-MCP-QZP.
*    /W.ECP.EFT.9s11p7d6f.5s3p5d2f.14e-MCP-ATZP.
*    /W.ECP.EFT.9s12p7d7f3g.5s4p5d3f2g.14e-MCP-AQZP.
*
*    /Re.ECP.EFT.8s10p6d5f.4s2p4d1f.15e-MCP-TZP.
*    /Re.ECP.EFT.8s11p6d6f2g.4s3p4d2f1g.15e-MCP-QZP.
*    /Re.ECP.EFT.9s11p7d6f.5s3p5d2f.15e-MCP-ATZP.
*    /Re.ECP.EFT.9s12p7d7f3g.5s4p5d3f2g.15e-MCP-AQZP.
*
*    /Os.ECP.EFT.8s10p6d5f.4s2p4d1f.16e-MCP-TZP.
*    /Os.ECP.EFT.8s11p6d6f2g.4s3p4d2f1g.16e-MCP-QZP.
*    /Os.ECP.EFT.9s11p7d6f.5s3p5d2f.16e-MCP-ATZP.
*    /Os.ECP.EFT.9s12p7d7f3g.5s4p5d3f2g.16e-MCP-AQZP.
*
*    /Ir.ECP.EFT.8s10p6d5f.4s2p4d1f.17e-MCP-TZP.
*    /Ir.ECP.EFT.8s11p6d6f2g.4s3p4d2f1g.17e-MCP-QZP.
*    /Ir.ECP.EFT.9s11p7d6f.5s3p5d2f.17e-MCP-ATZP.
*    /Ir.ECP.EFT.9s12p7d7f3g.5s4p5d3f2g.17e-MCP-AQZP.
*
*    /Pt.ECP.EFT.8s10p6d5f.4s2p4d1f.18e-MCP-TZP.
*    /Pt.ECP.EFT.8s11p6d6f2g.4s3p4d2f1g.18e-MCP-QZP.
*    /Pt.ECP.EFT.9s11p7d6f.5s3p5d2f.18e-MCP-ATZP.
*    /Pt.ECP.EFT.9s12p7d7f3g.5s4p5d3f2g.18e-MCP-AQZP.
*
*    /Pt.ECP.EFT.8s10p6d5f.4s2p4d1f.18e-MCP-TZP.
*    /Pt.ECP.EFT.8s11p6d6f2g.4s3p4d2f1g.18e-MCP-QZP.
*    /Pt.ECP.EFT.9s11p7d6f.5s3p5d2f.18e-MCP-ATZP.
*    /Pt.ECP.EFT.9s12p7d7f3g.5s4p5d3f2g.18e-MCP-AQZP.
*
*    /Au.ECP.EFT.8s10p6d5f.4s2p4d1f.19e-MCP-TZP.
*    /Au.ECP.EFT.8s11p6d6f2g.4s3p4d2f1g.19e-MCP-QZP.
*    /Au.ECP.EFT.9s11p7d6f.5s3p5d2f.19e-MCP-ATZP.
*    /Au.ECP.EFT.9s12p7d7f3g.5s4p5d3f2g.19e-MCP-AQZP.
*
*    /Hg.ECP.EFT.8s10p6d5f.4s2p4d1f.20e-MCP-TZP.
*    /Hg.ECP.EFT.8s11p6d6f2g.4s3p4d2f1g.20e-MCP-QZP.
*    /Hg.ECP.EFT.9s11p7d6f.5s3p5d2f.20e-MCP-ATZP.
*    /Hg.ECP.EFT.9s12p7d7f3g.5s4p5d3f2g.20e-MCP-AQZP.
*
********************************************************************************
*    lanthanide atoms
********************************************************************************
*
*    /Ce.ECP.EFT.10s10p9d10f.5s4p3d3f.12e-MCP-DZP.
*    /Ce.ECP.EFT.10s10p9d10f3g.5s4p3d3f1g.12e-MCP-TZP.
*    /Ce.ECP.EFT.10s10p10d10f5g.5s4p4d4f2g.12e-MCP-QZP.
*    /Ce.ECP.EFT.10s10p9d10f.5s4p3d3f.12e-MCP-ADZP.
*    /Ce.ECP.EFT.11s11p10d11f4g.6s5p4d4f2g.12e-MCP-ATZP.
*    /Ce.ECP.EFT.11s11p11d11f7g.6s5p5d5f3g.12e-MCP-AQZP.
*
*    /Pr.ECP.EFT.10s10p9d10f.5s4p3d3f.13e-MCP-DZP.
*    /Pr.ECP.EFT.10s10p9d10f3g.5s4p3d3f1g.13e-MCP-TZP.
*    /Pr.ECP.EFT.10s10p10d10f5g.5s4p4d4f2g.13e-MCP-QZP.
*    /Pr.ECP.EFT.10s10p9d10f.5s4p3d3f.13e-MCP-ADZP.
*    /Pr.ECP.EFT.11s11p10d11f4g.6s5p4d4f2g.13e-MCP-ATZP.
*    /Pr.ECP.EFT.11s11p11d11f7g.6s5p5d5f3g.13e-MCP-AQZP.
*
*    /Nd.ECP.EFT.10s10p9d10f.5s4p3d3f.14e-MCP-DZP.
*    /Nd.ECP.EFT.10s10p9d10f3g.5s4p3d3f1g.14e-MCP-TZP.
*    /Nd.ECP.EFT.10s10p10d10f5g.5s4p4d4f2g.14e-MCP-QZP.
*    /Nd.ECP.EFT.10s10p9d10f.5s4p3d3f.14e-MCP-ADZP.
*    /Nd.ECP.EFT.11s11p10d11f4g.6s5p4d4f2g.14e-MCP-ATZP.
*    /Nd.ECP.EFT.11s11p11d11f7g.6s5p5d5f3g.14e-MCP-AQZP.
*
*    /Pm.ECP.EFT.10s10p9d10f.5s4p3d3f.15e-MCP-DZP.
*    /Pm.ECP.EFT.10s10p9d10f3g.5s4p3d3f1g.15e-MCP-TZP.
*    /Pm.ECP.EFT.10s10p10d10f5g.5s4p4d4f2g.15e-MCP-QZP.
*    /Pm.ECP.EFT.10s10p9d10f.5s4p3d3f.15e-MCP-ADZP.
*    /Pm.ECP.EFT.11s11p10d11f4g.6s5p4d4f2g.15e-MCP-ATZP.
*    /Pm.ECP.EFT.11s11p11d11f7g.6s5p5d5f3g.15e-MCP-AQZP.
*
*    /Sm.ECP.EFT.10s10p9d10f.5s4p3d3f.16e-MCP-DZP.
*    /Sm.ECP.EFT.10s10p9d10f3g.5s4p3d3f1g.16e-MCP-TZP.
*    /Sm.ECP.EFT.10s10p10d10f5g.5s4p4d4f2g.16e-MCP-QZP.
*    /Sm.ECP.EFT.10s10p9d10f.5s4p3d3f.16e-MCP-ADZP.
*    /Sm.ECP.EFT.11s11p10d11f4g.6s5p4d4f2g.16e-MCP-ATZP.
*    /Sm.ECP.EFT.11s11p11d11f7g.6s5p5d5f3g.16e-MCP-AQZP.
*
*    /Eu.ECP.EFT.10s10p9d10f.5s4p3d3f.17e-MCP-DZP.
*    /Eu.ECP.EFT.10s10p9d10f3g.5s4p3d3f1g.17e-MCP-TZP.
*    /Eu.ECP.EFT.10s10p10d10f5g.5s4p4d4f2g.17e-MCP-QZP.
*    /Eu.ECP.EFT.10s10p9d10f.5s4p3d3f.17e-MCP-ADZP.
*    /Eu.ECP.EFT.11s11p10d11f4g.6s5p4d4f2g.17e-MCP-ATZP.
*    /Eu.ECP.EFT.11s11p11d11f7g.6s5p5d5f3g.17e-MCP-AQZP.
*
*    /Gd.ECP.EFT.10s10p9d10f.5s4p3d3f.18e-MCP-DZP.
*    /Gd.ECP.EFT.10s10p9d10f3g.5s4p3d3f1g.18e-MCP-TZP.
*    /Gd.ECP.EFT.10s10p10d10f5g.5s4p4d4f2g.18e-MCP-QZP.
*    /Gd.ECP.EFT.10s10p9d10f.5s4p3d3f.18e-MCP-ADZP.
*    /Gd.ECP.EFT.11s11p10d11f4g.6s5p4d4f2g.18e-MCP-ATZP.
*    /Gd.ECP.EFT.11s11p11d11f7g.6s5p5d5f3g.18e-MCP-AQZP.
*
*    /Tb.ECP.EFT.10s10p9d10f.5s4p3d3f.19e-MCP-DZP.
*    /Tb.ECP.EFT.10s10p9d10f3g.5s4p3d3f1g.19e-MCP-TZP.
*    /Tb.ECP.EFT.10s10p10d10f5g.5s4p4d4f2g.19e-MCP-QZP.
*    /Tb.ECP.EFT.10s10p9d10f.5s4p3d3f.19e-MCP-ADZP.
*    /Tb.ECP.EFT.11s11p10d11f4g.6s5p4d4f2g.19e-MCP-ATZP.
*    /Tb.ECP.EFT.11s11p11d11f7g.6s5p5d5f3g.19e-MCP-AQZP.
*
*    /Dy.ECP.EFT.10s10p9d10f.5s4p3d3f.20e-MCP-DZP.
*    /Dy.ECP.EFT.10s10p9d10f3g.5s4p3d3f1g.20e-MCP-TZP.
*    /Dy.ECP.EFT.10s10p10d10f5g.5s4p4d4f2g.20e-MCP-QZP.
*    /Dy.ECP.EFT.10s10p9d10f.5s4p3d3f.20e-MCP-ADZP.
*    /Dy.ECP.EFT.11s11p10d11f4g.6s5p4d4f2g.20e-MCP-ATZP.
*    /Dy.ECP.EFT.11s11p11d11f7g.6s5p5d5f3g.20e-MCP-AQZP.
*
*    /Ho.ECP.EFT.10s10p9d10f.5s4p3d3f.21e-MCP-DZP.
*    /Ho.ECP.EFT.10s10p9d10f3g.5s4p3d3f1g.21e-MCP-TZP.
*    /Ho.ECP.EFT.10s10p10d10f5g.5s4p4d4f2g.21e-MCP-QZP.
*    /Ho.ECP.EFT.10s10p9d10f.5s4p3d3f.21e-MCP-ADZP.
*    /Ho.ECP.EFT.11s11p10d11f4g.6s5p4d4f2g.21e-MCP-ATZP.
*    /Ho.ECP.EFT.11s11p11d11f7g.6s5p5d5f3g.21e-MCP-AQZP.
*
*    /Er.ECP.EFT.10s10p9d10f.5s4p3d3f.22e-MCP-DZP.
*    /Er.ECP.EFT.10s10p9d10f3g.5s4p3d3f1g.22e-MCP-TZP.
*    /Er.ECP.EFT.10s10p10d10f5g.5s4p4d4f2g.22e-MCP-QZP.
*    /Er.ECP.EFT.10s10p9d10f.5s4p3d3f.22e-MCP-ADZP.
*    /Er.ECP.EFT.11s11p10d11f4g.6s5p4d4f2g.22e-MCP-ATZP.
*    /Er.ECP.EFT.11s11p11d11f7g.6s5p5d5f3g.22e-MCP-AQZP.
*
*    /Tm.ECP.EFT.10s10p9d10f.5s4p3d3f.23e-MCP-DZP.
*    /Tm.ECP.EFT.10s10p9d10f3g.5s4p3d3f1g.23e-MCP-TZP.
*    /Tm.ECP.EFT.10s10p10d10f5g.5s4p4d4f2g.23e-MCP-QZP.
*    /Tm.ECP.EFT.10s10p9d10f.5s4p3d3f.23e-MCP-ADZP.
*    /Tm.ECP.EFT.11s11p10d11f4g.6s5p4d4f2g.23e-MCP-ATZP.
*    /Tm.ECP.EFT.11s11p11d11f7g.6s5p5d5f3g.23e-MCP-AQZP.
*
*    /Yb.ECP.EFT.10s10p9d10f.5s4p3d3f.24e-MCP-DZP.
*    /Yb.ECP.EFT.10s10p9d10f3g.5s4p3d3f1g.24e-MCP-TZP.
*    /Yb.ECP.EFT.10s10p10d10f5g.5s4p4d4f2g.24e-MCP-QZP.
*    /Yb.ECP.EFT.10s10p9d10f.5s4p3d3f.24e-MCP-ADZP.
*    /Yb.ECP.EFT.11s11p10d11f4g.6s5p4d4f2g.24e-MCP-ATZP.
*    /Yb.ECP.EFT.11s11p11d11f7g.6s5p5d5f3g.24e-MCP-AQZP.
*
*    /Lu.ECP.EFT.8s10p6d5f.4s2p4d1f.11e-MCP-TZP.
*    /Lu.ECP.EFT.8s11p6d6f2g.4s3p4d2f1g.11e-MCP-QZP.
*    /Lu.ECP.EFT.9s11p7d6f.5s3p5d2f.11e-MCP-ATZP.
*    /Lu.ECP.EFT.9s12p7d7f3g.5s4p5d3f2g.11e-MCP-AQZP.
*
********************************************************************************
*
*
*
*******************************************************************************
* Element : Li
* Basis : MCP segmented  (31/3)
* Effective Charge : 1.0
* Term : 2S   Valence configuration : 1s(1)
* SCF energy : -0.19632372 a.u.
* References
* Authors : Y. Sakai, E. Miyoshi, M. Klobukowski, S. Huzinaga,   [inner and valence shell]
* Journal : J. Chem. Phys. 106, 8084-8092 (1997)
* Authors : T. Noro, M. Sekiya, T. Koga,   [valence correlated set]
* Journal : Theor. Chem. Acc. 109, 85 (2003)
*******************************************************************************

/Li.ECP.EFT.4s3p.2s1p.1e-MCP-DZP.
Y. Sakai, E. Miyoshi, M. Klobukowski, S. Huzinaga, [inner and valence shell]
J. Chem. Phys. 106, 8084-8092 (1997)
* Z-atom   3.00
  1.00   1
   4   2
   9.26822410
   1.07445660
  5.842780000E-02
  2.176710000E-02
 -5.37307000E-02   0.0000000
 -0.21120100       0.0000000
  0.76560650       0.0000000
   0.0000000       1.0000000
   3   1
  0.529473000
  0.120808000
  4.759000000E-02
  1.72570000E-02
  0.59220200
  0.46198000
*
* Core MCP
*
* Z-eff     1.00
*  Basis : MCP segmented  (31/3)
M1
   2
  2.71842250D+00  1.06190560D+00
  1.40406970D+00  2.04084300D-01
M2
   0
COREREP
   1.0
PROJOP
   0
   7   1
             4.95548400
   710.579310
   103.436750
   24.4330030
   7.30896730
   2.50689360
  0.943800300
  0.370971000
            0.200950000E-02
            0.148233000E-01
            0.664048000E-01
            0.199080100
            0.381910800
            0.388466300
            0.109996700
Spectral Representation Operator
End of Spectral Representation Operator
*

*******************************************************************************
* Element : Be
* Basis : MCP segmented  (31/3)
* Effective Charge : 2.0
* Term : 1S   Valence configuration : 1s(2)
* SCF energy : -0.96181074 a.u.
* Valence Correlation energy : -0.04362947 a.u.
* References
* Authors : Y. Sakai, E. Miyoshi, M. Klobukowski, S. Huzinaga,   [inner and valence shell]
* Journal : J. Chem. Phys. 106, 8084-8092 (1997)
* Authors : T. Noro, M. Sekiya, T. Koga,   [valence correlated set]
* Journal : Theor. Chem. Acc. 98, 25 (1997)
*******************************************************************************

/Be.ECP.EFT.4s3p.2s1p.2e-MCP-DZP.
Y. Sakai, E. Miyoshi, M. Klobukowski, S. Huzinaga, [inner and valence shell]
J. Chem. Phys. 106, 8084-8092 (1997)
* Z-atom   4.00
  2.00   1
   4   2
   19.7571520
   2.44490940
  0.139594000
  4.705950000E-02
 -5.38136000E-02   0.0000000
 -0.23218770       0.0000000
  0.68820330       0.0000000
   0.0000000       1.0000000
   3   1
   3.67751800
  0.449702000
  0.121795000
  3.46510000E-02
  0.36158800
  0.73171300
*
* Core MCP
*
* Z-eff     2.00
*  Basis : MCP segmented  (31/3)
M1
   2
  5.18899210D+00  2.02397980D+00
  6.98605900D-01  1.06110200D-01
M2
   0
COREREP
   1.0
PROJOP
   0
   7   1
             9.46533800
   1311.61550
   191.386050
   45.2788330
   13.5973200
   4.71970130
   1.81734410
  0.734012100
            0.196990000E-02
            0.145197000E-01
            0.653428000E-01
            0.198269400
            0.383530700
            0.384504300
            0.109676900
Spectral Representation Operator
End of Spectral Representation Operator
*

*******************************************************************************
* Element : B
* Basis : MCP segmented  (31/31/2)
* Effective Charge : 3.0
* Term : 2P   Valence configuration : 1s(2)2p(1)
* SCF energy : -2.54577759 a.u.
* Valence Correlation energy : -0.06030928 a.u.
* References
* Authors : Y. Sakai, E. Miyoshi, M. Klobukowski, S. Huzinaga,   [inner and valence shell]
* Journal : J. Chem. Phys. 106, 8084-8092 (1997)
* Authors : T. Noro, M. Sekiya, T. Koga,   [valence correlated set]
* Journal : Theor. Chem. Acc. 98, 25 (1997)
*******************************************************************************

/B.ECP.EFT.4s4p2d.2s2p1d.3e-MCP-DZP.
Y. Sakai, E. Miyoshi, M. Klobukowski, S. Huzinaga, [inner and valence shell]
J. Chem. Phys. 106, 8084-8092 (1997)
* Z-atom   5.00
  3.00   2
   4   2
   33.5053420
   4.26854150
  0.253873200
  8.267550000E-02
 -5.87331000E-02   0.0000000
 -0.25074270       0.0000000
  0.69362350       0.0000000
   0.0000000       1.0000000
   4   2
   5.39389860
   1.03225680
  0.276034200
  8.051870000E-02
  4.38385000E-02   0.0000000
  0.24924530       0.0000000
  0.54142630       0.0000000
   0.0000000       1.0000000
   2   1
  0.762491000
  0.212862000
  0.36259900
  0.76448500
*
* Core MCP
*
* Z-eff     3.00
*  Basis : MCP segmented  (31/31/2)
M1
   2
  1.60355990D+01  2.32232870D+00
  5.06233200D-01  9.36262000D-02
M2
   0
COREREP
   1.0
PROJOP
   0
   7   1
             15.3906700
   278.786730
   38.2632960
   8.57637490
   2.36097790
   3.42618150
  0.292984700
  0.937514000E-01
            0.247701000E-01
            0.167863300
            0.497757000
            0.454273200
           -0.123540000E-02
            0.855450000E-02
            0.698600000E-02
Spectral Representation Operator
End of Spectral Representation Operator
*

*******************************************************************************
* Element : C
* Basis : MCP segmented  (31/31/2)
* Effective Charge : 4.0
* Term : 3P   Valence configuration : 1s(2)2p(2)
* SCF energy : -5.33556532 a.u.
* Valence Correlation energy : -0.07257289 a.u.
* References
* Authors : Y. Sakai, E. Miyoshi, M. Klobukowski, S. Huzinaga,   [inner and valence shell]
* Journal : J. Chem. Phys. 106, 8084-8092 (1997)
* Authors : T. Noro, M. Sekiya, T. Koga,   [valence correlated set]
* Journal : Theor. Chem. Acc. 98, 25 (1997)
*******************************************************************************

/C.ECP.EFT.4s4p2d.2s2p1d.4e-MCP-DZP.
Y. Sakai, E. Miyoshi, M. Klobukowski, S. Huzinaga, [inner and valence shell]
J. Chem. Phys. 106, 8084-8092 (1997)
* Z-atom   6.00
  4.00   2
   4   2
   36.1995780
   5.17968600
  0.436545000
  0.138161500
 -8.21984000E-02   0.0000000
 -0.25857220       0.0000000
  0.64703250       0.0000000
   0.0000000       1.0000000
   4   2
   8.42813110
   1.65487700
  0.443083800
  0.126207800
  4.96762000E-02   0.0000000
  0.26389810       0.0000000
  0.54247980       0.0000000
   0.0000000       1.0000000
   2   1
   1.25146300
  0.337794000
  0.35720500
  0.77365200
*
* Core MCP
*
* Z-eff     4.00
*  Basis : MCP segmented  (31/31/2)
M1
   2
  1.86460500D+01  3.51210000D+00
  3.95589500D-01  5.64416000D-02
M2
   0
COREREP
   1.0
PROJOP
   0
   7   1
             22.6510360
   409.069870
   56.1634280
   12.6321560
   3.49533560
   5.40439740
  0.460711500
  0.143642000
            0.244662000E-01
            0.166730900
            0.498501600
            0.453316700
           -0.129740000E-02
            0.906990000E-02
            0.745680000E-02
Spectral Representation Operator
End of Spectral Representation Operator
*

*******************************************************************************
* Element : N
* Basis : MCP segmented  (31/31/2)
* Effective Charge : 5.0
* Term : 4S   Valence configuration : 1s(2)2p(3)
* SCF energy : -9.68276973 a.u.
* Valence Correlation energy : -0.08142259 a.u.
* References
* Authors : Y. Sakai, E. Miyoshi, M. Klobukowski, S. Huzinaga,   [inner and valence shell]
* Journal : J. Chem. Phys. 106, 8084-8092 (1997)
* Authors : T. Noro, M. Sekiya, T. Koga,   [valence correlated set]
* Journal : Theor. Chem. Acc. 98, 25 (1997)
*******************************************************************************

/N.ECP.EFT.4s4p2d.2s2p1d.5e-MCP-DZP.
Y. Sakai, E. Miyoshi, M. Klobukowski, S. Huzinaga, [inner and valence shell]
J. Chem. Phys. 106, 8084-8092 (1997)
* Z-atom   7.00
  5.00   2
   4   2
   50.9582410
   7.39423700
  0.624451000
  0.194342700
 -8.33930000E-02   0.0000000
 -0.26448990       0.0000000
  0.64839870       0.0000000
   0.0000000       1.0000000
   4   2
   12.0364550
   2.40041700
  0.642430000
  0.179850000
  5.21868000E-02   0.0000000
  0.27436130       0.0000000
  0.54251780       0.0000000
   0.0000000       1.0000000
   2   1
   1.87338400
  0.493923000
  0.35330600
  0.78005000
*
* Core MCP
*
* Z-eff     5.00
*  Basis : MCP segmented  (31/31/2)
M1
   2
  2.76393000D+01  5.02210000D+00
  3.19156700D-01  5.24840000D-02
M2
   0
COREREP
   1.0
PROJOP
   0
   7   1
             31.2580000
   563.509380
   77.3875350
   17.4485490
   4.84350840
   7.82095670
  0.663301800
  0.202945900
            0.242267000E-01
            0.165710100
            0.497988700
            0.451105300
            0.133460000E-02
            0.941090000E-02
            0.777950000E-02
Spectral Representation Operator
End of Spectral Representation Operator
*

*******************************************************************************
* Element : O
* Basis : MCP segmented  (31/31/2)
* Effective Charge : 6.0
* Term : 3P   Valence configuration : 1s(2)2p(4)
* SCF energy : -15.71356426 a.u.
* Valence Correlation energy : -0.11070192 a.u.
* References
* Authors : Y. Sakai, E. Miyoshi, M. Klobukowski, S. Huzinaga,   [inner and valence shell]
* Journal : J. Chem. Phys. 106, 8084-8092 (1997)
* Authors : T. Noro, M. Sekiya, T. Koga,   [valence correlated set]
* Journal : Theor. Chem. Acc. 98, 25 (1997)
*******************************************************************************

/O.ECP.EFT.4s4p2d.2s2p1d.6e-MCP-DZP.
Y. Sakai, E. Miyoshi, M. Klobukowski, S. Huzinaga, [inner and valence shell]
J. Chem. Phys. 106, 8084-8092 (1997)
* Z-atom   8.00
  6.00   2
   4   2
   68.2230000
   9.99925000
  0.849368000
  0.261447000
 -8.36975000E-02   0.0000000
 -0.26941880       0.0000000
  0.65251380       0.0000000
   0.0000000       1.0000000
   4   2
   15.5158070
   3.12594600
  0.824537000
  0.221136000
  5.56238000E-02   0.0000000
  0.29047130       0.0000000
  0.53956070       0.0000000
   0.0000000       1.0000000
   2   1
   2.61563900
  0.688518000
  0.35203900
  0.78125100
*
* Core MCP
*
* Z-eff     6.00
*  Basis : MCP segmented  (31/31/2)
M1
   2
  4.06486400D+01  5.17523000D+00
  2.82598400D-01  3.63918000D-02
M2
   0
COREREP
   1.0
PROJOP
   0
   7   1
             41.3373140
   743.241140
   102.086990
   23.0589650
   6.41618600
   10.6780270
  0.906532000
  0.274061000
            0.241331000E-01
            0.165553300
            0.499616400
            0.451795000
           -0.137670000E-02
            0.976130000E-02
            0.799280000E-02
Spectral Representation Operator
End of Spectral Representation Operator
*

*******************************************************************************
* Element : F
* Basis : MCP segmented  (31/31/2)
* Effective Charge : 7.0
* Term : 2P   Valence configuration : 1s(2)2p(5)
* SCF energy : -23.97534882 a.u.
* Valence Correlation energy : -0.1375555 a.u.
* References
* Authors : Y. Sakai, E. Miyoshi, M. Klobukowski, S. Huzinaga,   [inner and valence shell]
* Journal : J. Chem. Phys. 106, 8084-8092 (1997)
* Authors : T. Noro, M. Sekiya, T. Koga,   [valence correlated set]
* Journal : Theor. Chem. Acc. 98, 25 (1997)
*******************************************************************************

/F.ECP.EFT.4s4p2d.2s2p1d.7e-MCP-DZP.
Y. Sakai, E. Miyoshi, M. Klobukowski, S. Huzinaga, [inner and valence shell]
J. Chem. Phys. 106, 8084-8092 (1997)
* Z-atom   9.00
  7.00   2
   4   2
   87.9476470
   12.9860850
   1.10574440
  0.337340000
 -8.45923000E-02   0.0000000
 -0.27375230       0.0000000
  0.65608500       0.0000000
   0.0000000       1.0000000
   4   2
   19.7318030
   4.00408000
   1.04870020
  0.274627700
  5.90122000E-02   0.0000000
  0.30134500       0.0000000
  0.53782970       0.0000000
   0.0000000       1.0000000
   2   1
   3.49586800
  0.916030000
  0.34963700
  0.78373700
*
* Core MCP
*
* Z-eff     7.00
*  Basis : MCP segmented  (31/31/2)
M1
   2
  5.20278120D+01  6.20635390D+00
  2.45051400D-01  3.28548000D-02
M2
   0
COREREP
   1.0
PROJOP
   0
   7   1
             52.7655000
   947.615720
   130.184100
   29.4488530
   8.20894150
   13.9755700
   1.18439010
  0.354596700
            0.240176000E-01
            0.165113100
            0.499804000
            0.451498000
           -0.141120000E-02
            0.100599000E-01
            0.820250000E-02
Spectral Representation Operator
End of Spectral Representation Operator
*

*******************************************************************************
* Element : Ne
* Basis : MCP segmented  (31/31/2)
* Effective Charge : 8.0
* Term : 1S   Valence configuration : 1s(2)2p(6)
* SCF energy : -34.77988686 a.u.
* Valence Correlation energy : -0.16592188 a.u.
* References
* Authors : Y. Sakai, E. Miyoshi, M. Klobukowski, S. Huzinaga,   [inner and valence shell]
* Journal : J. Chem. Phys. 106, 8084-8092 (1997)
* Authors : T. Noro, M. Sekiya, T. Koga,   [valence correlated set]
* Journal : Theor. Chem. Acc. 98, 25 (1997)
*******************************************************************************

/Ne.ECP.EFT.4s4p2d.2s2p1d.8e-MCP-DZP.
Y. Sakai, E. Miyoshi, M. Klobukowski, S. Huzinaga, [inner and valence shell]
J. Chem. Phys. 106, 8084-8092 (1997)
* Z-atom  10.00
  8.00   2
   4   2
   153.294250
   20.4446050
   1.27421960
  0.387584300
 -6.20403000E-02   0.0000000
 -0.28256020       0.0000000
  0.69518250       0.0000000
   0.0000000       1.0000000
   4   2
   24.6198420
   5.02277090
   1.31065690
  0.338288500
  6.17684000E-02   0.0000000
  0.30746950       0.0000000
  0.53682130       0.0000000
   0.0000000       1.0000000
   2   1
   4.52662700
   1.17755200
  0.34692600
  0.78682300
*
* Core MCP
*
* Z-eff     8.00
*  Basis : MCP segmented  (31/31/2)
M1
   2
  5.40766750D+01  7.61297270D+00
  2.04417700D-01  2.63601000D-02
M2
   0
COREREP
   1.0
PROJOP
   0
   7   1
             65.5448500
   1175.86970
   161.567960
   36.5906900
   10.2128450
   17.7116330
   1.49732990
  0.444670000
            0.239474000E-01
            0.164890900
            0.500158200
            0.450968700
           -0.143230000E-02
            0.102566000E-01
            0.835280000E-02
Spectral Representation Operator
End of Spectral Representation Operator
*

*******************************************************************************
* Element : Na
* Basis : MCP segmented  (551/43)
* Effective Charge : 9.0
* Term : 2S   Valence configuration : 1s(2)2p(6)2s(1)
* SCF energy : -47.68815682 a.u.
* References
* Authors : H. Anjima, S. Tsukamoto, H. Mori, H. Mine, M. Klobukowski, E. Miyoshi,   [inner and valence shell]
* Journal : J. Comput. Chem. 28, 2424-2430 (2007)
* Authors : T. Noro, M. Sekiya, T. Koga,   [valence correlated set]
* Journal : Theor. Chem. Acc. 109, 85 (2003)
*******************************************************************************

/Na.ECP.EFT.6s7p.3s2p.9e-MCP-DZP.
H. Anjima, S. Tsukamoto, H. Mori, H. Mine, M. Klobukowski, E. Miyoshi, [inner and valence shell]
J. Comput. Chem. 28, 2424-2430 (2007)
* Z-atom  11.00
  9.00   1
   6   3
   190.581980
   25.2921500
   1.60633600
  0.683835800
  5.243890000E-02
  2.044730000E-02
 -6.51285000E-02  9.01330000E-03   0.0000000
 -0.28698360      4.14902000E-02   0.0000000
  0.63848260     -0.11212170       0.0000000
  0.41620290     -0.18361120       0.0000000
  4.56541000E-02  0.72718920       0.0000000
   0.0000000       0.0000000       1.0000000
   7   2
   32.8873390
   6.86830920
   1.86585380
  0.522155100
  0.555775000
  9.447300000E-02
  4.036000000E-02
  5.61264000E-02   0.0000000
  0.29609200       0.0000000
  0.54260900       0.0000000
  0.34714390       0.0000000
   0.0000000     -3.67010000E-02
   0.0000000      0.64370300
   0.0000000      0.41945500
*
* Core MCP
*
* Z-eff     9.00
*  Basis : MCP segmented  (551/43)
M1
   3
  5.85459290D+02  5.78210190D+01  1.97145000D+01
  8.72594000D-02  7.53627000D-02  3.81114000D-02
M2
   3
  1.03480780D+03  5.31520410D+02  2.64567520D+00
  9.29870360D+00  2.34370000D-01  1.16535000D-02
COREREP
   1.0
PROJOP
   0
   7   1
             81.1357280
   1511.21880
   202.991370
   45.5256810
   12.6442020
   21.7465300
   1.92086790
  0.610569600
            0.232997000E-01
            0.161645800
            0.497414800
            0.457142900
           -0.156340000E-02
            0.108595000E-01
            0.877020000E-02
Spectral Representation Operator
End of Spectral Representation Operator
*

*******************************************************************************
* Element : Mg
* Basis : MCP segmented  (551/42)
* Effective Charge : 10.0
* Term : 1S   Valence configuration : 1s(2)2p(6)2s(2)
* SCF energy : -62.95909849 a.u.
* Valence Correlation energy : -0.03153174 a.u.
* References
* Authors : H. Anjima, S. Tsukamoto, H. Mori, H. Mine, M. Klobukowski, E. Miyoshi,   [inner and valence shell]
* Journal : J. Comput. Chem. 28, 2424-2430 (2007)
* Authors : M. Sekiya, T. Noro, T. Koga, H. Matsuyama,   [valence correlated set]
* Journal : J. Mol. Struct. (Theochem) 451, 51 (1998)
*******************************************************************************

/Mg.ECP.EFT.6s6p.3s2p.10e-MCP-DZP.
H. Anjima, S. Tsukamoto, H. Mori, H. Mine, M. Klobukowski, E. Miyoshi, [inner and valence shell]
J. Comput. Chem. 28, 2424-2430 (2007)
* Z-atom  12.00
 10.00   1
   6   3
   228.585270
   30.4569750
   1.97532460
  0.666982600
  9.767590000E-02
  3.553150000E-02
 -6.67512000E-02  1.18235000E-02   0.0000000
 -0.29958160      5.60520000E-02   0.0000000
  0.73235230     -0.19997920       0.0000000
  0.34879460     -0.18912570       0.0000000
  4.53600000E-04  0.73075110       0.0000000
   0.0000000       0.0000000       1.0000000
   6   2
   45.5439120
   9.51012300
   2.61847980
  0.755844100
  0.147870000
  5.515500000E-02
  4.87994000E-02   0.0000000
  0.27554300       0.0000000
  0.54707550       0.0000000
  0.35771450       0.0000000
   0.0000000      0.69310700
   0.0000000      0.36989900
*
* Core MCP
*
* Z-eff    10.00
*  Basis : MCP segmented  (551/42)
M1
   3
  6.35922790D+02  6.71871370D+01  2.75305140D+01
  7.72959000D-02  6.67599000D-02  3.44447000D-02
M2
   3
  1.15273130D+03  7.76824810D+02  3.22174950D+00
  8.50792120D+00  2.12054500D-01  9.49060000D-03
COREREP
   1.0
PROJOP
   0
   7   1
             98.2480840
   1793.50340
   242.566800
   54.5775310
   15.2019100
   26.0929750
   2.38868520
  0.797506000
            0.232875000E-01
            0.161098500
            0.496145800
            0.458142200
           -0.165430000E-02
            0.112313000E-01
            0.882870000E-02
Spectral Representation Operator
End of Spectral Representation Operator
*

*******************************************************************************
* Element : Al
* Basis : MCP segmented  (31/31/3)
* Effective Charge : 3.0
* Term : 2P   Valence configuration : 1s(2)2p(1)
* SCF energy : -1.87947754 a.u.
* Valence Correlation energy : -0.04904615 a.u.
* References
* Authors : Y. Sakai, E. Miyoshi, M. Klobukowski, S. Huzinaga,   [inner and valence shell]
* Journal : J. Chem. Phys. 106, 8084-8092 (1997)
* Authors : M. Sekiya, T. Noro, T. Koga, H. Matsuyama,   [valence correlated set]
* Journal : J. Mol. Struct. (Theochem) 451, 51 (1998)
*******************************************************************************

/Al.ECP.EFT.4s4p3d.2s2p1d.3e-MCP-DZP.
Y. Sakai, E. Miyoshi, M. Klobukowski, S. Huzinaga, [inner and valence shell]
J. Chem. Phys. 106, 8084-8092 (1997)
* Z-atom  13.00
  3.00   2
   4   2
   61.0134250
   1.66771840
  0.141781700
  5.095710000E-02
  7.10887000E-02   0.0000000
 -0.39365650       0.0000000
  0.78872580       0.0000000
   0.0000000       1.0000000
   4   2
   16.7380950
   3.04805370
  0.177605300
  5.105210000E-02
 -4.78547000E-02   0.0000000
 -0.12752240       0.0000000
  0.55703530       0.0000000
   0.0000000       1.0000000
   3   1
   2.15045100
  0.325227000
  0.108640000
  2.72190000E-02
  0.47918400
  0.62932000
*
* Core MCP
*
* Z-eff     3.00
*  Basis : MCP segmented  (31/31/3)
M1
   3
  1.31695280D+02  5.21732400D+00  2.33145920D+00
  1.12867090D+00  2.01558230D+00  1.21579400D-01
M2
   3
  9.14227260D+02  2.07756010D+02  1.25107970D+00
  3.80228610D+01  1.40268330D+01  1.11663800D-01
COREREP
   1.0
PROJOP
   1
   7   2
             76.0513000       6.38391000
   2043.80760
   280.936740
   63.7891150
   17.8886240
   30.6192720
   2.88683820
  0.999350000
            0.233061000E-01  0.660390000E-02
            0.161391900      0.457312000E-01
            0.495843400      0.140499600
            0.456906200      0.129466600
           -0.172390000E-02  0.956624000E-01
            0.114276000E-01 -0.634145500
            0.865990000E-02 -0.480558200
   5   1
             4.18379000
   108.962060
   23.6303530
   7.10773220
   2.36606390
  0.802501800
            0.182431000E-01
            0.121210500
            0.357178100
            0.499390600
            0.230930300
Spectral Representation Operator
End of Spectral Representation Operator
*

*******************************************************************************
* Element : Si
* Basis : MCP segmented  (31/31/3)
* Effective Charge : 4.0
* Term : 3P   Valence configuration : 1s(2)2p(2)
* SCF energy : -3.71731711 a.u.
* Valence Correlation energy : -0.06747439 a.u.
* References
* Authors : Y. Sakai, E. Miyoshi, M. Klobukowski, S. Huzinaga,   [inner and valence shell]
* Journal : J. Chem. Phys. 106, 8084-8092 (1997)
* Authors : M. Sekiya, T. Noro, T. Koga, H. Matsuyama,   [valence correlated set]
* Journal : J. Mol. Struct. (Theochem) 451, 51 (1998)
*******************************************************************************

/Si.ECP.EFT.4s4p3d.2s2p1d.4e-MCP-DZP.
Y. Sakai, E. Miyoshi, M. Klobukowski, S. Huzinaga, [inner and valence shell]
J. Chem. Phys. 106, 8084-8092 (1997)
* Z-atom  14.00
  4.00   2
   4   2
   70.6789100
   2.07634800
  0.203359000
  0.138161500
  5.71451000E-02   0.0000000
 -0.42826180       0.0000000
  0.45774670       0.0000000
   0.0000000       1.0000000
   4   2
   21.1900600
   3.96269900
  0.260567000
  7.680330000E-02
 -5.18953000E-02   0.0000000
 -0.16851950       0.0000000
  0.60674120       0.0000000
   0.0000000       1.0000000
   3   1
   2.93987300
  0.470762000
  0.157222000
  3.18570000E-02
  0.48010500
  0.62713900
*
* Core MCP
*
* Z-eff     4.00
*  Basis : MCP segmented  (31/31/3)
M1
   3
  1.34986300D+02  4.33571370D+00  4.54790230D+00
  8.30010800D-01  1.47547010D+00 -8.63417000D-02
M2
   3
  8.54063770D+02  2.11976100D+02  9.98091700D-01
  3.04568840D+01  9.55689100D+00  8.65130000D-02
COREREP
   1.0
PROJOP
   1
   7   2
             82.5748800       7.38783600
   2387.95740
   328.280200
   74.5861230
   20.9441230
   35.8222230
   3.44462050
   1.22228350
            0.231373000E-01  0.671920000E-02
            0.160450200      0.465955000E-01
            0.494621600      0.143640400
            0.458580200      0.133173800
           -0.179650000E-02  0.980690000E-01
            0.118111000E-01 -0.644769700
            0.862200000E-02 -0.470678900
   5   1
             5.10726480
   134.822780
   29.3614810
   8.89063490
   3.00034930
   1.03760180
            0.173118000E-01
            0.116974800
            0.353186300
            0.503463400
            0.228747100
Spectral Representation Operator
End of Spectral Representation Operator
*

*******************************************************************************
* Element : P
* Basis : MCP segmented  (31/31/3)
* Effective Charge : 5.0
* Term : 4S   Valence configuration : 1s(2)2p(3)
* SCF energy : -6.33528545 a.u.
* Valence Correlation energy : -0.08349258 a.u.
* References
* Authors : Y. Sakai, E. Miyoshi, M. Klobukowski, S. Huzinaga,   [inner and valence shell]
* Journal : J. Chem. Phys. 106, 8084-8092 (1997)
* Authors : M. Sekiya, T. Noro, T. Koga, H. Matsuyama,   [valence correlated set]
* Journal : J. Mol. Struct. (Theochem) 451, 51 (1998)
*******************************************************************************

/P.ECP.EFT.4s4p3d.2s2p1d.5e-MCP-DZP.
Y. Sakai, E. Miyoshi, M. Klobukowski, S. Huzinaga, [inner and valence shell]
J. Chem. Phys. 106, 8084-8092 (1997)
* Z-atom  15.00
  5.00   2
   4   2
   81.2561030
   2.51787800
  0.273389000
  0.100063500
  3.51840000E-02   0.0000000
 -0.43408370       0.0000000
  0.76857010       0.0000000
   0.0000000       1.0000000
   4   2
   26.0787000
   4.97449540
  0.353237300
  0.105600300
 -4.54440000E-02   0.0000000
 -0.15889780       0.0000000
  0.60566870       0.0000000
   0.0000000       1.0000000
   3   1
   3.83420700
  0.637622000
  0.212861000
  3.47820000E-02
  0.48201300
  0.62444800
*
* Core MCP
*
* Z-eff     5.00
*  Basis : MCP segmented  (31/31/3)
M1
   3
  1.26996550D+02  5.12503940D+00  2.84904140D+00
  5.47651500D-01  1.14269650D+00 -6.70316000D-02
M2
   3
  1.16912930D+03  1.84391130D+02  1.32677630D+00
  1.56478060D+01  5.18971510D+00  4.72836000D-02
COREREP
   1.0
PROJOP
   1
   7   2
             87.9666870       8.26221000
   2759.33690
   379.373000
   86.2419590
   24.2459520
   41.4679390
   4.04932730
   1.46209090
            0.229884000E-01  0.681550000E-02
            0.159616200      0.473220000E-01
            0.493528800      0.146318400
            0.460076500      0.136400700
           -0.185870000E-02  0.100140800
            0.121685000E-01 -0.655585700
            0.855390000E-02 -0.460847800
   5   1
             5.94104500
   163.573770
   35.7420360
   10.8814650
   3.71328930
   1.30400870
            0.165328000E-01
            0.113324100
            0.349331100
            0.506566600
            0.228203000
Spectral Representation Operator
End of Spectral Representation Operator
*

*******************************************************************************
* Element : S
* Basis : MCP segmented  (31/31/3)
* Effective Charge : 6.0
* Term : 3P   Valence configuration : 1s(2)2p(4)
* SCF energy : -9.94718777 a.u.
* Valence Correlation energy : -0.1081414 a.u.
* References
* Authors : Y. Sakai, E. Miyoshi, M. Klobukowski, S. Huzinaga,   [inner and valence shell]
* Journal : J. Chem. Phys. 106, 8084-8092 (1997)
* Authors : M. Sekiya, T. Noro, T. Koga, H. Matsuyama,   [valence correlated set]
* Journal : J. Mol. Struct. (Theochem) 451, 51 (1998)
*******************************************************************************

/S.ECP.EFT.4s4p3d.2s2p1d.6e-MCP-DZP.
Y. Sakai, E. Miyoshi, M. Klobukowski, S. Huzinaga, [inner and valence shell]
J. Chem. Phys. 106, 8084-8092 (1997)
* Z-atom  16.00
  6.00   2
   4   2
   92.6936890
   2.99532660
  0.353972400
  0.129621700
  2.60000000E-02   0.0000000
 -0.46400000       0.0000000
  0.76900000       0.0000000
   0.0000000       1.0000000
   4   2
   31.7773090
   6.16054770
  0.454620300
  0.130246900
 -5.60000000E-02   0.0000000
 -0.18400000       0.0000000
  0.61400000       0.0000000
   0.0000000       1.0000000
   3   1
   4.91298100
  0.816329000
  0.271972000
  3.70200000E-02
  0.48037700
  0.62584500
*
* Core MCP
*
* Z-eff     6.00
*  Basis : MCP segmented  (31/31/3)
M1
   3
  1.15591650D+02  5.97114120D+00  2.85909020D+00
  6.03369000D-01  9.56218200D-01 -7.84118000D-02
M2
   3
  2.06268010D+03  1.48713810D+02  1.64401040D+00
  6.29347070D+00  5.71991100D+00  3.81389000D-02
COREREP
   1.0
PROJOP
   1
   7   2
             96.6046720       9.45450450
   3158.03290
   434.227270
   98.7594640
   27.7952170
   47.5484140
   4.70344450
   1.72013780
            0.228557000E-01  0.689740000E-02
            0.158869400      0.479435000E-01
            0.492541600      0.148638900
            0.461427800      0.139249400
           -0.191290000E-02  0.101963500
            0.124898000E-01 -0.665734700
            0.847600000E-02 -0.451786500
   5   1
             7.01663550
   193.103090
   42.2955720
   12.9261760
   4.44630820
   1.57536380
            0.161564000E-01
            0.111846700
            0.349194300
            0.509418500
            0.223192200
Spectral Representation Operator
End of Spectral Representation Operator
*

*******************************************************************************
* Element : Cl
* Basis : MCP segmented  (31/31/3)
* Effective Charge : 7.0
* Term : 2P   Valence configuration : 1s(2)2p(5)
* SCF energy : -14.81652207 a.u.
* Valence Correlation energy : -0.13442071 a.u.
* References
* Authors : Y. Sakai, E. Miyoshi, M. Klobukowski, S. Huzinaga,   [inner and valence shell]
* Journal : J. Chem. Phys. 106, 8084-8092 (1997)
* Authors : M. Sekiya, T. Noro, T. Koga, H. Matsuyama,   [valence correlated set]
* Journal : J. Mol. Struct. (Theochem) 451, 51 (1998)
*******************************************************************************

/Cl.ECP.EFT.4s4p3d.2s2p1d.7e-MCP-DZP.
Y. Sakai, E. Miyoshi, M. Klobukowski, S. Huzinaga, [inner and valence shell]
J. Chem. Phys. 106, 8084-8092 (1997)
* Z-atom  17.00
  7.00   2
   4   2
   104.978890
   3.50782000
  0.443804000
  0.162753000
  1.12343000E-02   0.0000000
 -0.52552060       0.0000000
  0.79309400       0.0000000
   0.0000000       1.0000000
   4   2
   37.7868500
   7.41799800
  0.566765300
  0.160016400
 -6.78780000E-02   0.0000000
 -0.22000180       0.0000000
  0.61435690       0.0000000
   0.0000000       1.0000000
   3   1
   6.12933800
   1.02429600
  0.340006000
  3.89790000E-02
  0.47968000
  0.62664200
*
* Core MCP
*
* Z-eff     7.00
*  Basis : MCP segmented  (31/31/3)
M1
   3
  1.12054270D+02  6.86097770D+00  2.78942900D+00
  3.79239200D-01  8.15318000D-01 -9.31215000D-02
M2
   3
  1.66752560D+03  1.07067730D+02  3.57455280D+00
  5.02289320D+00  4.69240790D+00  1.41406200D-01
COREREP
   1.0
PROJOP
   1
   7   2
             104.884400       10.6075000
   3584.29220
   492.877360
   112.146460
   31.5938670
   54.0660980
   5.40564400
   1.99510560
            0.227348000E-01  0.696620000E-02
            0.158185100      0.484697000E-01
            0.491624000      0.150639200
            0.462682900      0.141771300
           -0.196170000E-02  0.103554400
            0.127916000E-01 -0.675251400
            0.839920000E-02 -0.443385100
   5   1
             8.07220000
   223.907760
   49.1604110
   15.0775930
   5.22226180
   1.86247030
            0.159617000E-01
            0.111227200
            0.350149700
            0.511564700
            0.217605900
Spectral Representation Operator
End of Spectral Representation Operator
*

*******************************************************************************
* Element : Ar
* Basis : MCP segmented  (31/31/3)
* Effective Charge : 8.0
* Term : 1S   Valence configuration : 1s(2)2p(6)
* SCF energy : -20.7613479 a.u.
* Valence Correlation energy : -0.16463388 a.u.
* References
* Authors : Y. Sakai, E. Miyoshi, M. Klobukowski, S. Huzinaga,   [inner and valence shell]
* Journal : J. Chem. Phys. 106, 8084-8092 (1997)
* Authors : M. Sekiya, T. Noro, T. Koga, H. Matsuyama,   [valence correlated set]
* Journal : J. Mol. Struct. (Theochem) 451, 51 (1998)
*******************************************************************************

/Ar.ECP.EFT.4s4p3d.2s2p1d.8e-MCP-DZP.
Y. Sakai, E. Miyoshi, M. Klobukowski, S. Huzinaga, [inner and valence shell]
J. Chem. Phys. 106, 8084-8092 (1997)
* Z-atom  18.00
  8.00   2
   4   2
   118.115210
   4.05586480
  0.542938500
  0.199265600
  1.82252000E-02   0.0000000
 -0.38795510       0.0000000
  0.74056490       0.0000000
   0.0000000       1.0000000
   4   2
   44.2248120
   8.77077120
  0.690534300
  0.194248500
 -1.50416000E-02   0.0000000
 -8.30456000E-02   0.0000000
  0.64221180       0.0000000
   0.0000000       1.0000000
   3   1
   7.46160800
   1.25850100
  0.415530000
  4.07030000E-02
  0.47985500
  0.62691300
*
* Core MCP
*
* Z-eff     8.00
*  Basis : MCP segmented  (31/31/3)
M1
   3
  3.09796930D+02  1.46938100D+01  1.87082500D+00
  3.20886700D-01  3.74332900D-01  8.14169000D-02
M2
   3
  6.46147600D+02  4.26236700D+02  4.13137150D+00
  8.71372630D+00  4.53538390D+00  7.91509000D-02
COREREP
   1.0
PROJOP
   1
   7   2
             118.610350       12.3221500
   4037.33960
   555.232690
   126.385720
   35.6377970
   61.0175940
   6.15644340
   2.28713180
            0.226295000E-01  0.702620000E-02
            0.157583100      0.489275000E-01
            0.490804500      0.152388400
            0.463793300      0.144001800
           -0.200420000E-02  0.104955700
            0.130617000E-01 -0.684008200
            0.832070000E-02 -0.435734900
   5   1
             9.57146270
   263.843090
   58.0292220
   17.8590270
   6.23208870
   2.25024220
            0.151365000E-01
            0.106875300
            0.343301400
            0.513001200
            0.224467400
Spectral Representation Operator
End of Spectral Representation Operator
*

*******************************************************************************
* Element : K
* Basis : MCP segmented  (661/53)
* Effective Charge : 9.0
* Term : 2S   Valence configuration : 1s(2)2p(6)2s(1)
* SCF energy : -27.99808634 a.u.
* References
* Authors : H. Anjima, S. Tsukamoto, H. Mori, H. Mine, M. Klobukowski, E. Miyoshi,   [inner and valence shell]
* Journal : J. Comput. Chem. 28, 2424-2430 (2007)
* Authors : T. Noro, M. Sekiya, T. Koga,   [valence correlated set]
* Journal : Theor. Chem. Acc. 109, 85 (2003)
*******************************************************************************

/K.ECP.EFT.7s8p.3s2p.9e-MCP-DZP.
H. Anjima, S. Tsukamoto, H. Mori, H. Mine, M. Klobukowski, E. Miyoshi, [inner and valence shell]
J. Comput. Chem. 28, 2424-2430 (2007)
* Z-atom  19.00
  9.00   1
   7   3
   135.635610
   5.66797250
   2.42664100
  0.726894300
  0.282208000
  3.361420000E-02
  1.391600000E-02
  0.13702030     -2.16727000E-02   0.0000000
 -0.36257830      8.84332000E-02   0.0000000
 -0.29277790      4.82752000E-02   0.0000000
  0.79912390     -0.20176440       0.0000000
  0.45254950     -0.25762480       0.0000000
  1.98672000E-02  0.84248580       0.0000000
   0.0000000       0.0000000       1.0000000
   8   2
   33.9315300
   6.24540960
   2.02800670
  0.656999600
  0.222320500
  0.253382000
  5.612100000E-02
  2.517000000E-02
 -9.93895000E-02   0.0000000
 -0.28379340       0.0000000
  0.23114610       0.0000000
  0.62491620       0.0000000
  0.33724510       0.0000000
   0.0000000     -7.29940000E-02
   0.0000000      0.69257700
   0.0000000      0.38233200
*
* Core MCP
*
* Z-eff     9.00
*  Basis : MCP segmented  (661/53)
M1
   3
  2.64937300D+02  9.00873700D+00  3.30959650D+00
  6.40638600D-01  4.97872600D-01  1.26566000D-02
M2
   3
  1.65886290D+03  7.08091160D+02  4.33889850D+00
  2.38772030D+01  3.35308570D+00  3.30649100D-01
COREREP
   1.0
PROJOP
   1
  10   2
             268.369900       29.2098280
   5242.44070
   690.581430
   153.786290
   42.8696260
   69.7698200
   7.20773400
   2.83141640
   4.72270370
  0.683533800
  0.263096800
            0.207687000E-01  0.657290000E-02
            0.145726800      0.461197000E-01
            0.472304200      0.149475200
            0.490923200      0.155367800
           -0.320420000E-02  0.103163900
            0.202053000E-01 -0.650547300
            0.143347000E-01 -0.461533500
            0.435940000E-02  0.224650000E-02
           -0.153196000E-01 -0.789460000E-02
           -0.812040000E-02 -0.418470000E-02
   7   1
             23.0621920
   176.584540
   38.0364210
   11.2458500
   3.70030350
   1.44738900
  0.523684200
  0.190660700
            0.363065000E-01
            0.222360700
            0.529411300
            0.395685700
            0.664500000E-02
            0.111494000E-01
            0.448660000E-02
Spectral Representation Operator
End of Spectral Representation Operator
*

*******************************************************************************
* Element : Ca
* Basis : MCP segmented  (661/52)
* Effective Charge : 10.0
* Term : 1S   Valence configuration : 1s(2)2p(6)2s(2)
* SCF energy : -36.38052312 a.u.
* Valence Correlation energy : -0.02473 a.u.
* References
* Authors : H. Anjima, S. Tsukamoto, H. Mori, H. Mine, M. Klobukowski, E. Miyoshi,   [inner and valence shell]
* Journal : J. Comput. Chem. 28, 2424-2430 (2007)
* Authors : M. Sekiya, T. Noro, Y. Osanai, T. Koga,   [valence correlated set]
* Journal : Theor. Chem. Acc. 106, 297 (2001)
*******************************************************************************

/Ca.ECP.EFT.7s7p.3s2p.10e-MCP-DZP.
H. Anjima, S. Tsukamoto, H. Mori, H. Mine, M. Klobukowski, E. Miyoshi, [inner and valence shell]
J. Comput. Chem. 28, 2424-2430 (2007)
* Z-atom  20.00
 10.00   1
   7   3
   151.575520
   6.35278320
   2.49789940
  0.894426800
  0.360780100
  5.993950000E-02
  2.397230000E-02
  0.14799500     -2.87390000E-02   0.0000000
 -0.41872080      0.11901050       0.0000000
 -0.30263210      7.14440000E-02   0.0000000
  0.82671020     -0.28223950       0.0000000
  0.46145840     -0.29829180       0.0000000
  2.20898000E-02  0.75920490       0.0000000
   0.0000000       0.0000000       1.0000000
   7   2
   42.5220190
   8.04307370
   2.63101280
  0.864222600
  0.299627100
  7.550300000E-02
  2.707700000E-02
 -9.92982000E-02   0.0000000
 -0.29610800       0.0000000
  0.17599150       0.0000000
  0.64447730       0.0000000
  0.34741600       0.0000000
   0.0000000      0.84971300
   0.0000000      0.19387000
*
* Core MCP
*
* Z-eff    10.00
*  Basis : MCP segmented  (661/52)
M1
   3
  2.57170810D+02  1.03651510D+01  2.56015930D+01
  6.49044500D-01  4.81057400D-01  2.04360000D-03
M2
   3
  1.51964950D+03  4.62247670D+03  5.66419340D+00
  1.27424250D+01  9.50422500D-01  2.48684800D-01
COREREP
   1.0
PROJOP
   1
  10   2
             300.346400       33.9369000
   5903.41430
   773.829330
   171.928550
   47.8863770
   77.9216030
   8.12268500
   3.22020920
   5.43897190
  0.814876400
  0.328057900
            0.206209000E-01  0.660210000E-02
            0.144805100      0.463619000E-01
            0.471089300      0.150827400
            0.492864400      0.157799100
           -0.327200000E-02  0.104016900
            0.205709000E-01 -0.653945300
            0.144271000E-01 -0.458636800
            0.436700000E-02  0.242630000E-02
           -0.150565000E-01 -0.836510000E-02
           -0.734970000E-02 -0.408340000E-02
   7   1
             27.2915800
   202.591320
   43.7060460
   12.9783250
   4.30394220
   1.72417530
  0.641330800
  0.240511400
            0.352607000E-01
            0.218242500
            0.527342700
            0.399349400
            0.734900000E-02
            0.119410000E-01
            0.412450000E-02
Spectral Representation Operator
End of Spectral Representation Operator
*

*******************************************************************************
* Element : Ti
* Basis : MCP segmented  (51/42/411)
* Effective Charge : 10.0
* Term : 3F   Valence configuration : 1s(2)3d(2)
* SCF energy : -37.87512204 a.u.
* Valence Correlation energy : -0.03076931 a.u.
* References
* Authors : Y. Sakai, E. Miyoshi, M. Klobukowski, S. Huzinaga,   [inner and valence shell]
* Journal : J. Comput. Chem. 8, 256-264 (1987)
* Authors : T. Noro, M. Sekiya, T. Koga, H. Matsuyama,   [valence correlated set]
* Journal : Theor. Chem. Acc. 104, 146 (2000)
*******************************************************************************

/Ti.ECP.EFT.6s6p6d.2s2p3d.10e-MCP-DZP.
Y. Sakai, E. Miyoshi, M. Klobukowski, S. Huzinaga, [inner and valence shell]
J. Comput. Chem. 8, 256-264 (1987)
* Z-atom  22.00
 10.00   2
   6   2
   177.269000
   6.85077000
  0.984684000
  0.435766000
  6.935440000E-02
  2.715740000E-02
 -2.36880000E-02   0.0000000
  0.13141150       0.0000000
 -0.24001020       0.0000000
 -0.22170710       0.0000000
  0.65987020       0.0000000
   0.0000000       1.0000000
   6   2
   73.7566000
   15.0848000
   1.37036000
  0.435439000
  0.116859000
  4.468700000E-02
 -7.88271000E-02   0.0000000
 -0.27281450       0.0000000
  0.67515230       0.0000000
  0.41104590       0.0000000
   0.0000000      0.73829000
   0.0000000      0.31704100
   6   3
   16.3351000
   3.99368000
   1.21301000
  0.365839000
  0.103099000
  5.154950000E-02
  4.07833000E-02   0.0000000       0.0000000
  0.19585840       0.0000000       0.0000000
  0.42237880       0.0000000       0.0000000
  0.46467540       0.0000000       0.0000000
   0.0000000       1.0000000       0.0000000
   0.0000000       0.0000000       1.0000000
*
* Core MCP
*
* Z-eff    10.00
*  Basis : MCP segmented  (51/42/411)
M1
   3
  2.34167700D+02  7.21721700D+00  1.39479400D+00
  5.75745000D-01  2.73134400D-01  5.66278000D-02
M2
   3
  1.61643830D+03  3.99845680D+01  8.74599100D-01
  6.21997200D+01  5.04020700D+00  6.75636000D-02
COREREP
   1.0
PROJOP
   1
  10   3
             366.221370       42.4766520       5.40002000
   6457.64350
   888.772410
   202.613830
   57.4367830
   92.9207110
   9.89517150
   3.96534140
   6.94432200
   1.06143880
  0.413039900
            0.208731000E-01  0.675330000E-02  0.270800000E-02
            0.146681000      0.474574000E-01  0.190299000E-01
            0.471634400      0.152593500      0.611882000E-01
            0.487824600      0.157831700      0.632887000E-01
           -0.342690000E-02  0.109373400      0.448163000E-01
            0.209797000E-01 -0.669582900     -0.274364800
            0.139414000E-01 -0.444950300     -0.182320500
            0.466720000E-02  0.239300000E-02 -0.240495800
           -0.157386000E-01 -0.806970000E-02  0.810997700
           -0.784570000E-02 -0.402280000E-02  0.404283100
   7   1
             35.2209600
   250.338740
   54.5709610
   16.3828910
   5.50524930
   2.28868350
  0.845088700
  0.308909200
            0.344911000E-01
            0.216466000
            0.528393700
            0.396475200
            0.763630000E-02
            0.119052000E-01
            0.421140000E-02
Spectral Representation Operator
End of Spectral Representation Operator
*

*******************************************************************************
* Element : Ga
* Basis : MCP segmented  (412/312/52)
* Effective Charge : 13.0
* Term : 2P   Valence configuration : 1s(2)2p(1)
* SCF energy : -78.37580751 a.u.
* Valence Correlation energy : -0.04607909 a.u.
* References
* Authors : E. Miyoshi, Y. Sakai, K. Tanaka, M. Masamura,   [inner and valence shell]
* Journal : J. Mol. Struct. (THEOCHEM), 451, 73-79 (1998)
* Authors : M. Sekiya, T. Noro, Y. Osanai, T. Koga,   [valence correlated set]
* Journal : Theor. Chem. Acc. 106, 297 (2001)
*******************************************************************************

/Ga.ECP.EFT.7s6p7d.3s3p2d.13e-MCP-DZP.
E. Miyoshi, Y. Sakai, K. Tanaka, M. Masamura, [inner and valence shell]
J. Mol. Struct. (THEOCHEM), 451, 73-79 (1998)
* Z-atom  31.00
 13.00   2
   7   3
   400.406630
   12.1935510
   8.85606510
   1.66709830
  0.182501600
  7.600030000E-02
  4.347160000E-02
 -2.88997000E-02   0.0000000       0.0000000
  0.37214650       0.0000000       0.0000000
 -0.25953040       0.0000000       0.0000000
 -0.43896660       0.0000000       0.0000000
   0.0000000       1.0000000       0.0000000
   0.0000000       0.0000000      0.34971700
   0.0000000       0.0000000      9.50532000E-02
   6   3
   54.8141000
   3.07556140
   1.11824570
  0.270636200
  9.650530000E-02
  3.540960000E-02
  5.64036000E-02   0.0000000       0.0000000
 -0.14482720       0.0000000       0.0000000
 -4.63931000E-02   0.0000000       0.0000000
   0.0000000       1.0000000       0.0000000
   0.0000000       0.0000000      0.55599050
   0.0000000       0.0000000      0.28802500
   7   2
   55.7444240
   14.7213610
   4.83822720
   1.60624470
  0.493004800
  0.309245000
  0.107132000
  4.43531000E-02   0.0000000
  0.20816350       0.0000000
  0.43011850       0.0000000
  0.45518340       0.0000000
  0.20447030       0.0000000
   0.0000000      0.49356800
   0.0000000      0.61435800
*
* Core MCP
*
* Z-eff    13.00
*  Basis : MCP segmented  (412/312/52)
M1
   3
  1.41961740D+02  6.98149380D+00  1.45922200D+00
  7.77764600D-01  3.82537200D-01  1.27587400D-01
M2
   3
  9.03020610D+02  6.04270190D+01  1.53884580D+00
  7.48768250D+00  4.95294180D+00  6.05745000D-02
COREREP
   1.0
PROJOP
   1
  12   3
             768.066480       98.6405600       13.1626280
   17532.5780
   2141.32090
   459.090120
   125.661330
   204.163080
   22.1136480
   9.05530010
   16.9156610
   2.66804830
   1.06796700
  0.158609800
  0.531391000E-01
            0.190567000E-01  0.659850000E-02  0.255200000E-02
            0.134271300      0.464921000E-01  0.179813000E-01
            0.455946300      0.157873500      0.610594000E-01
            0.516493300      0.178838200      0.691677000E-01
           -0.406650000E-02  0.105921200      0.475710000E-01
            0.259677000E-01 -0.676388100     -0.303777500
            0.169382000E-01 -0.441194400     -0.198148000
            0.553400000E-02  0.297270000E-02 -0.250210500
           -0.179643000E-01 -0.964980000E-02  0.812227400
           -0.930770000E-02 -0.499980000E-02  0.420833100
             0.00000000      0.139430000E-02  0.320720000E-02
             0.00000000      0.475600000E-03  0.109390000E-02
   9   2
             85.5764160       9.05291460
   589.757240
   127.409990
   38.5808110
   13.1940980
   6.04050320
   2.28519390
  0.878501800
  0.219100300
  0.572471000E-01
            0.315458000E-01  0.131567000E-01
            0.205447800      0.856857000E-01
            0.526279000      0.219494000
            0.402475500      0.167859600
            0.950370000E-02 -0.388751300
            0.144896000E-01 -0.592703800
            0.529450000E-02 -0.216573800
           -0.264810000E-02 -0.205890000E-02
           -0.339530000E-02 -0.263980000E-02
Spectral Representation Operator
End of Spectral Representation Operator
*

*******************************************************************************
* Element : Ge
* Basis : MCP segmented  (412/312/52)
* Effective Charge : 14.0
* Term : 3P   Valence configuration : 1s(2)2p(2)
* SCF energy : -94.63280326 a.u.
* Valence Correlation energy : -0.05991254 a.u.
* References
* Authors : E. Miyoshi, Y. Sakai, K. Tanaka, M. Masamura,   [inner and valence shell]
* Journal : J. Mol. Struct. (THEOCHEM), 451, 73-79 (1998)
* Authors : M. Sekiya, T. Noro, Y. Osanai, T. Koga,   [valence correlated set]
* Journal : Theor. Chem. Acc. 106, 297 (2001)
*******************************************************************************

/Ge.ECP.EFT.7s6p7d.3s3p2d.14e-MCP-DZP.
E. Miyoshi, Y. Sakai, K. Tanaka, M. Masamura, [inner and valence shell]
J. Mol. Struct. (THEOCHEM), 451, 73-79 (1998)
* Z-atom  32.00
 14.00   2
   7   3
   428.752630
   13.4918000
   9.38049590
   1.87257860
  0.236525000
  0.161923600
  7.683230000E-02
 -3.11048000E-02   0.0000000       0.0000000
  0.34972590       0.0000000       0.0000000
 -0.21905570       0.0000000       0.0000000
 -0.49305100       0.0000000       0.0000000
   0.0000000       1.0000000       0.0000000
   0.0000000       0.0000000      0.20411990
   0.0000000       0.0000000      0.33983880
   6   3
   59.2082270
   3.32769850
   1.07696190
  0.359403400
  0.133552600
  5.015950000E-02
  6.57106000E-02   0.0000000       0.0000000
 -0.18061600       0.0000000       0.0000000
 -6.32174000E-02   0.0000000       0.0000000
   0.0000000       1.0000000       0.0000000
   0.0000000       0.0000000      0.56155630
   0.0000000       0.0000000      0.25736630
   7   2
   64.6898100
   17.2387160
   5.74528800
   1.95628290
  0.623472900
  0.396133000
  0.141014000
  4.14831000E-02   0.0000000
  0.20000630       0.0000000
  0.42195560       0.0000000
  0.46240140       0.0000000
  0.20170130       0.0000000
   0.0000000      0.50580300
   0.0000000      0.59790100
*
* Core MCP
*
* Z-eff    14.00
*  Basis : MCP segmented  (412/312/52)
M1
   3
  1.27468250D+02  7.95701940D+00  1.63789540D+00
  6.44143600D-01  3.65878000D-01  1.17486000D-01
M2
   3
  7.39581660D+02  5.92467770D+01  1.50561660D+00
  1.16426440D+01  3.76357210D+00  5.68207000D-02
COREREP
   1.0
PROJOP
   1
  12   3
             822.402260       106.946750       14.8128060
   19065.5640
   2310.58130
   493.357160
   134.728740
   219.080540
   23.7934240
   9.77438050
   18.2686690
   2.89925190
   1.18238760
  0.199760400
  0.672231000E-01
            0.189675000E-01  0.659910000E-02  0.257920000E-02
            0.133578700      0.464741000E-01  0.181639000E-01
            0.455027400      0.158311100      0.618740000E-01
            0.518151000      0.180272800      0.704575000E-01
           -0.409740000E-02  0.105722400      0.480406000E-01
            0.261700000E-01 -0.675241700     -0.306832200
            0.171460000E-01 -0.442403700     -0.201029800
            0.554510000E-02  0.314250000E-02 -0.253007000
           -0.179244000E-01 -0.101581000E-01  0.817837700
           -0.914570000E-02 -0.518310000E-02  0.417292900
             0.00000000      0.171750000E-02  0.336600000E-02
             0.00000000      0.534400000E-03  0.104740000E-02
   9   2
             93.1543720       10.4231520
   638.786330
   137.923940
   41.7984360
   14.3206210
   6.58545490
   2.51746390
  0.991246000
  0.289377000
  0.809212000E-01
            0.311422000E-01  0.131948000E-01
            0.203587300      0.862588000E-01
            0.524786300      0.222349000
            0.404805200      0.171513700
            0.995960000E-02 -0.389839100
            0.151661000E-01 -0.593634000
            0.543170000E-02 -0.212609800
           -0.310030000E-02 -0.217830000E-02
           -0.352220000E-02 -0.247480000E-02
Spectral Representation Operator
End of Spectral Representation Operator
*

*******************************************************************************
* Element : As
* Basis : MCP segmented  (412/312/52)
* Effective Charge : 15.0
* Term : 4S   Valence configuration : 1s(2)2p(3)
* SCF energy : -112.61028246 a.u.
* Valence Correlation energy : -0.071256 a.u.
* References
* Authors : E. Miyoshi, Y. Sakai, K. Tanaka, M. Masamura,   [inner and valence shell]
* Journal : J. Mol. Struct. (THEOCHEM), 451, 73-79 (1998)
* Authors : M. Sekiya, T. Noro, Y. Osanai, T. Koga,   [valence correlated set]
* Journal : Theor. Chem. Acc. 106, 297 (2001)
*******************************************************************************

/As.ECP.EFT.7s6p7d.3s3p2d.15e-MCP-DZP.
E. Miyoshi, Y. Sakai, K. Tanaka, M. Masamura, [inner and valence shell]
J. Mol. Struct. (THEOCHEM), 451, 73-79 (1998)
* Z-atom  33.00
 15.00   2
   7   3
   457.250260
   15.7866900
   7.95264500
   2.04222750
  0.312386700
  0.186822000
  8.682300000E-02
 -3.40046000E-02   0.0000000       0.0000000
  0.25876000       0.0000000       0.0000000
 -0.12188760       0.0000000       0.0000000
 -0.53538820       0.0000000       0.0000000
   0.0000000       1.0000000       0.0000000
   0.0000000       0.0000000      0.40386300
   0.0000000       0.0000000      0.26373020
   6   3
   63.7715420
   3.60523070
   1.05087070
  0.454861900
  0.170878100
  6.519740000E-02
  7.39903000E-02   0.0000000       0.0000000
 -0.21277680       0.0000000       0.0000000
 -8.45723000E-02   0.0000000       0.0000000
   0.0000000       1.0000000       0.0000000
   0.0000000       0.0000000      0.56613660
   0.0000000       0.0000000      0.23714520
   7   2
   73.8034430
   19.8083030
   6.67302060
   2.31699190
  0.759040400
  0.486116000
  0.176408000
  3.75534000E-02   0.0000000
  0.18741540       0.0000000
  0.42092310       0.0000000
  0.46762160       0.0000000
  0.19885020       0.0000000
   0.0000000      0.51916800
   0.0000000      0.58157500
*
* Core MCP
*
* Z-eff    15.00
*  Basis : MCP segmented  (412/312/52)
M1
   3
  1.42295810D+02  8.20405540D+00  1.70525760D+00
  6.54519100D-01  3.32902200D-01  1.06877900D-01
M2
   3
  8.79209980D+02  7.05944970D+01  1.73224070D+00
  9.30935680D+00  3.97933070D+00  5.08407000D-02
COREREP
   1.0
PROJOP
   1
  12   3
             878.725480       115.646590       16.5561580
   20701.1960
   2488.95890
   529.205340
   144.169150
   234.632930
   25.5450400
   10.5281530
   19.6815600
   3.14054890
   1.30116790
  0.243599600
  0.827004000E-01
            0.188809000E-01  0.659930000E-02  0.260660000E-02
            0.132888700      0.464474000E-01  0.183457000E-01
            0.454100500      0.158717800      0.626901000E-01
            0.519821200      0.181688700      0.717631000E-01
           -0.412810000E-02  0.105477500      0.484927000E-01
            0.263749000E-01 -0.673907600     -0.309825400
            0.173675000E-01 -0.443759600     -0.204016100
            0.556340000E-02  0.331800000E-02 -0.255943900
           -0.179571000E-01 -0.107095000E-01  0.826115200
           -0.894230000E-02 -0.533310000E-02  0.411388900
             0.00000000      0.202280000E-02  0.349700000E-02
             0.00000000      0.605700000E-03  0.104710000E-02
   9   2
             101.095040       11.8756260
   690.430180
   148.976630
   45.1793690
   15.5062210
   7.15132740
   2.75811020
   1.10648980
  0.360832800
  0.105206500
            0.307425000E-01  0.132295000E-01
            0.201707200      0.868012000E-01
            0.523211500      0.225155000
            0.407237200      0.175247500
            0.104533000E-01 -0.392160400
            0.158757000E-01 -0.595586500
            0.551440000E-02 -0.206877800
           -0.354400000E-02 -0.220770000E-02
           -0.371530000E-02 -0.231440000E-02
Spectral Representation Operator
End of Spectral Representation Operator
*

[...]
   8.62323900
   4.24919700
   1.66208600
  0.498059000
  0.139237000
  3.59374000E-02   0.0000000       0.0000000       0.0000000
   0.0000000
  0.17026990       0.0000000       0.0000000       0.0000000
   0.0000000
  0.37039770       0.0000000       0.0000000       0.0000000
   0.0000000
  0.44283640       0.0000000       0.0000000       0.0000000
   0.0000000
  0.30184140       0.0000000       0.0000000       0.0000000
   0.0000000
  0.12642230       0.0000000       0.0000000       0.0000000
   0.0000000
   0.0000000      0.15266800       0.0000000       0.0000000
   0.0000000
   0.0000000      0.87920400       0.0000000       0.0000000
   0.0000000
   0.0000000       0.0000000       1.0000000       0.0000000
   0.0000000
   0.0000000       0.0000000       0.0000000       1.0000000
   0.0000000
   0.0000000       0.0000000       0.0000000       0.0000000
   1.0000000
   7   3
   16.9739030
   6.00473200
   2.11057600
  0.703525300
   9.10117300
   3.07632600
   1.03401640
  0.31671300       0.0000000       0.0000000
  0.80566100       0.0000000       0.0000000
   0.0000000       1.0000000       0.0000000
   0.0000000       0.0000000       1.0000000
   0.0000000       0.0000000      0.44078200
   0.0000000       0.0000000      0.73790300
   0.0000000       0.0000000       1.0000000
*
* Core MCP
*
* Z-eff    23.00
*  Basis : MCP segmented  (88111/6121/3151/6211/21/2 + 1s1p1d1f1g1h)
M1
   3
  9.81611400D+02  5.03776340D+01  4.51925200D+00
  9.73468300D-01  5.98035500D-01  4.00760100D-01
M2
   3
  3.28236480D+03  3.26336950D+01  2.02047440D+00
  1.19468710D+02  3.52286580D+00  6.78822000D-02
COREREP
   1.0
PROJOP
   2
  14   4
             4399.75600       752.016800       173.005400       36.0615200
   247434.760
   21000.9700
   3556.19430
   836.191510
   1499.78160
   154.143080
   67.4277580
   123.624380
   21.1595960
   8.93742840
   4.80094640
   2.00136930
  0.712938000
  0.281891700
            0.180414000E-01  0.715570000E-02  0.339440000E-02  0.177560000E-02
            0.110676700      0.438972000E-01  0.208231000E-01  0.108926000E-01
            0.410254100      0.162717100      0.771864000E-01  0.403763000E-01
            0.587125400      0.232868800      0.110463500      0.577836000E-01
           -0.512840000E-02  0.757769000E-01  0.425767000E-01  0.124632000E-01
            0.394170000E-01 -0.582421900     -0.327244900     -0.957926000E-01
            0.357873000E-01 -0.528788800     -0.297110100     -0.869714000E-01
            0.992970000E-02  0.782790000E-02 -0.307903900     -0.319834600
           -0.338084000E-01 -0.266522000E-01   1.04834530       1.08896690
           -0.853810000E-02 -0.673090000E-02  0.264754000      0.275012800
             0.00000000      0.625230000E-02 -0.713470000E-02  -1.23075940
             0.00000000      0.157370000E-02 -0.179580000E-02 -0.309786000
             0.00000000       0.00000000      0.157340000E-02  0.935800000E-03
             0.00000000       0.00000000      0.481400000E-03  0.286300000E-03
  10   3
             665.117600       146.068480       27.0017400
   4914.83820
   992.368500
   294.222280
   102.189300
   44.7981060
   17.6294180
   7.57190460
   3.00266650
  0.971463400
  0.321877200
            0.228269000E-01  0.125376000E-01  0.610900000E-02
            0.157259300      0.863744000E-01  0.420863000E-01
            0.474206200      0.260456800      0.126908600
            0.475867800      0.261369400      0.127353300
            0.315459000E-01 -0.522520700     -0.381501800
            0.384442000E-01 -0.636782100     -0.464926100
           -0.118430000E-01 -0.273626000E-01  0.692273100
           -0.100420000E-01 -0.232014000E-01  0.586996500
             0.00000000      0.458440000E-02  0.120160000E-01
             0.00000000      0.393190000E-02  0.103056000E-01
   7   2
             112.083100       14.6173240
   475.830660
   130.896540
   46.2135640
   17.6158130
   14.2776650
   5.47301210
   1.99508820
            0.400887000E-01  0.196072000E-01
            0.241620400      0.118175400
            0.541543100      0.264866300
            0.364812300      0.178428100
            0.850070000E-02 -0.313005900
            0.177457000E-01 -0.653421800
            0.847140000E-02 -0.311927000
Spectral Representation Operator
End of Spectral Representation Operator
*

*******************************************************************************
* Element : Yb
* Basis : MCP segmented  (88111/6121/3151/6211/21/2 + 1s1p1d1f1g1h)
* Effective Charge : 24.0
* Term : 1S   Valence configuration : 1s(2)2s(2)2p(6)4f(14)
* SCF energy : -248.06934975 a.u.
* Valence Correlation energy : -1.3979047 a.u.
* References
* Authors : Y. Sakai, E. Miyoshi, H. Tatewaki,   [inner shell]
* Journal : J. Mol. Struct. (Theochem), 451, 143-150 (1998)
* Authors : M. Sekiya, T. Noro, Y. Osanai, E. Miyoshi, T. Koga,   [valence shell]
* Journal : J. Comp. Chem. 27, 463 (2006)
* Authors : M. Sekiya, T. Noro, Y. Osanai, E. Miyoshi, T. Koga,   [valence correlated set]
* Journal : J. Comp. Chem. 27, 463 (2006)
*******************************************************************************

/Yb.ECP.EFT.11s11p11d11f7g.6s5p5d5f3g.24e-MCP-AQZP.
Y. Sakai, E. Miyoshi, H. Tatewaki, [inner shell]
J. Mol. Struct. (Theochem), 451, 143-150 (1998)
* Z-atom  70.00
 24.00   4
  11   6
   18322.3320
   1821.95850
   117.563990
   21.8325000
   4.25124910
  0.706131300
  0.293965500
  9.586730000E-02
  4.412930000E-02
  2.015480000E-02
  6.718300000E-03
  9.53670000E-03 -2.39890000E-03   0.0000000       0.0000000
   0.0000000       0.0000000
  4.80644000E-02 -1.20902000E-02   0.0000000       0.0000000
   0.0000000       0.0000000
 -0.20967230      5.20596000E-02   0.0000000       0.0000000
   0.0000000       0.0000000
  0.54584620     -0.13614780       0.0000000       0.0000000
   0.0000000       0.0000000
 -0.98582010      0.26322910       0.0000000       0.0000000
   0.0000000       0.0000000
  0.97899410     -0.36989290       0.0000000       0.0000000
   0.0000000       0.0000000
  0.27207860     -0.26805840       1.0000000       0.0000000
   0.0000000       0.0000000
  1.73634000E-02  0.31176290       0.0000000       0.0000000
   0.0000000       0.0000000
   0.0000000       0.0000000       0.0000000       1.0000000
   0.0000000       0.0000000
   0.0000000       0.0000000       0.0000000       0.0000000
   1.0000000       0.0000000
   0.0000000       0.0000000       0.0000000       0.0000000
   0.0000000       1.0000000
  11   5
   3775.41400
   767.770430
   230.107800
   32.5209710
   5.43604780
  0.778670200
  0.274863000
  0.530948000
  7.819100000E-02
  2.963400000E-02
  9.878000000E-03
 -4.31850000E-03   0.0000000       0.0000000       0.0000000
   0.0000000
 -2.01955000E-02   0.0000000       0.0000000       0.0000000
   0.0000000
 -5.12887000E-02   0.0000000       0.0000000       0.0000000
   0.0000000
  0.21314230       0.0000000       0.0000000       0.0000000
   0.0000000
 -0.46348890       0.0000000       0.0000000       0.0000000
   0.0000000
  0.73281990       0.0000000       0.0000000       0.0000000
   0.0000000
   0.0000000       1.0000000       0.0000000       0.0000000
   0.0000000
   0.0000000       0.0000000     -0.14510900       0.0000000
   0.0000000
   0.0000000       0.0000000       1.0439580       0.0000000
   0.0000000
   0.0000000       0.0000000       0.0000000       1.0000000
   0.0000000
   0.0000000       0.0000000       0.0000000       0.0000000
   1.0000000
  11   5
   11.5328710
   1.03383000
  0.304037000
  0.105715000
   702.982525
   163.024442
   52.1395650
   6.33200600
   1.47607900
   1.45566200
  3.523830000E-02
 -3.51160000E-02   0.0000000       0.0000000       0.0000000
   0.0000000
  0.50274700       0.0000000       0.0000000       0.0000000
   0.0000000
  0.63709500       0.0000000       0.0000000       0.0000000
   0.0000000
   0.0000000       1.0000000       0.0000000       0.0000000
   0.0000000
   0.0000000       0.0000000      9.42100000E-03   0.0000000
   0.0000000
   0.0000000       0.0000000      8.00990000E-02   0.0000000
   0.0000000
   0.0000000       0.0000000      0.21149300       0.0000000
   0.0000000
   0.0000000       0.0000000     -0.56344400       0.0000000
   0.0000000
   0.0000000       0.0000000     -0.60998200       0.0000000
   0.0000000
   0.0000000       0.0000000       0.0000000       1.0000000
   0.0000000
   0.0000000       0.0000000       0.0000000       0.0000000
   1.0000000
  11   5
   85.0458160
   26.2063630
   9.69977430
   3.63796310
   1.27840120
  0.385409600
   9.22476300
   4.63449700
   1.81672400
  0.544345000
  0.143701600
  3.87289000E-02   0.0000000       0.0000000       0.0000000
   0.0000000
  0.16928680       0.0000000       0.0000000       0.0000000
   0.0000000
  0.37687370       0.0000000       0.0000000       0.0000000
   0.0000000
  0.44287730       0.0000000       0.0000000       0.0000000
   0.0000000
  0.29580130       0.0000000       0.0000000       0.0000000
   0.0000000
  0.12441670       0.0000000       0.0000000       0.0000000
   0.0000000
   0.0000000      0.14699100       0.0000000       0.0000000
   0.0000000
   0.0000000      0.88241600       0.0000000       0.0000000
   0.0000000
   0.0000000       0.0000000       1.0000000       0.0000000
   0.0000000
   0.0000000       0.0000000       0.0000000       1.0000000
   0.0000000
   0.0000000       0.0000000       0.0000000       0.0000000
   1.0000000
   7   3
   17.3983370
   6.23560100
   2.21959700
  0.739865700
   9.44452900
   3.29933500
   1.11035990
  0.32818800       0.0000000       0.0000000
  0.79480300       0.0000000       0.0000000
   0.0000000       1.0000000       0.0000000
   0.0000000       0.0000000       1.0000000
   0.0000000       0.0000000      0.44100200
   0.0000000       0.0000000      0.73010300
   0.0000000       0.0000000       1.0000000
*
* Core MCP
*
* Z-eff    24.00
*  Basis : MCP segmented  (88111/6121/3151/6211/21/2 + 1s1p1d1f1g1h)
M1
   3
  1.06458240D+03  4.45655410D+01  4.61735110D+00
  9.42221900D-01  5.65701500D-01  3.99518500D-01
M2
   3
  3.63098550D+03  4.21674530D+01  2.27192780D+00
  1.18695780D+02  3.80708110D+00  6.33959000D-02
COREREP
   1.0
PROJOP
   2
  14   4
             4544.14400       779.743000       179.808240       37.4092400
   263013.640
   22116.6420
   3715.26090
   868.661060
   1568.06120
   160.579030
   70.2481520
   128.560350
   21.9839900
   9.28619120
   5.01950990
   2.10186920
  0.740027100
  0.292030300
            0.181214000E-01  0.721080000E-02  0.342720000E-02  0.179360000E-02
            0.110342100      0.439068000E-01  0.208685000E-01  0.109214000E-01
            0.409071600      0.162776000      0.773660000E-01  0.404889000E-01
            0.588749700      0.234272800      0.111347800      0.582730000E-01
           -0.512100000E-02  0.745971000E-01  0.420075000E-01  0.123102000E-01
            0.396388000E-01 -0.577417600     -0.325158300     -0.952869000E-01
            0.366256000E-01 -0.533524700     -0.300441100     -0.880436000E-01
            0.100038000E-01  0.797370000E-02 -0.307750500     -0.320505200
           -0.341028000E-01 -0.271823000E-01   1.04911500       1.09259530
           -0.859200000E-02 -0.684840000E-02  0.264317000      0.275271500
             0.00000000      0.633740000E-02 -0.710370000E-02  -1.22649770
             0.00000000      0.163580000E-02 -0.183360000E-02 -0.316579400
             0.00000000       0.00000000      0.154970000E-02  0.650600000E-03
             0.00000000       0.00000000      0.482200000E-03  0.202400000E-03
  10   3
             688.505420       151.664320       27.9637400
   5115.69470
   1030.12460
   304.948200
   105.838570
   46.4941900
   18.3037630
   7.88840240
   3.12199680
   1.00541340
  0.331380700
            0.227816000E-01  0.125451000E-01  0.612330000E-02
            0.156852100      0.863734000E-01  0.421595000E-01
            0.473778000      0.260894300      0.127344500
            0.476622800      0.262460800      0.128109100
            0.316607000E-01 -0.522879700     -0.382860200
            0.385720000E-01 -0.637021400     -0.466436400
           -0.117726000E-01 -0.273662000E-01  0.693032300
           -0.998720000E-02 -0.232160000E-01  0.587931000
             0.00000000      0.454070000E-02  0.120033000E-01
             0.00000000      0.391970000E-02  0.103619000E-01
   7   2
             116.596900       15.1680760
   493.974070
   135.873230
   47.9999700
   18.3117960
   14.8739540
   5.70065670
   2.07552710
            0.399404000E-01  0.196043000E-01
            0.241233600      0.118407000
            0.541685100      0.265880500
            0.364694300      0.179006400
            0.855750000E-02 -0.313978400
            0.178158000E-01 -0.653668600
            0.849830000E-02 -0.311804400
Spectral Representation Operator
End of Spectral Representation Operator
*

*******************************************************************************
* Element : Lu
* Basis : MCP segmented  (6611/632/3111/42/2 + 1s1p1d1f1g)
* Effective Charge : 11.0
* Term : 2D   Valence configuration : 5s(2)5p(6)5d(1)6s(2)
* SCF energy : -40.96148511 a.u.
* Valence Correlation energy : -0.17006074 a.u.
* References
* Authors : H. Mori, K. Ueno-Noto, Y. Osanai, T. Noro, T. Fujiwara, M. Klobukowski, E. Miyoshi,   [inner and valence shell]
* Journal : Chem. Phys. Lett. 476, 317-322 (2009)
* Authors : Y. Osanai, T. Noro, E. Miyoshi, M. Sekiya, T. Koga,   [valence correlated set]
* Journal : J. Chem. Phys. 120, 6408 (2004)
*******************************************************************************

/Lu.ECP.EFT.9s12p7d7f3g.5s4p5d3f2g.11e-MCP-AQZP.
H. Mori, K. Ueno-Noto, Y. Osanai, T. Noro, T. Fujiwara, M. Klobukowski, E. Miyoshi, [inner and valence shell]
Chem. Phys. Lett. 476, 317-322 (2009)
* Z-atom  71.00
 11.00   4
   9   5
   3186.53560
   108.831990
   23.8973430
   4.34927600
  0.775293900
  0.329171400
  7.437270000E-02
  2.930660000E-02
  9.768900000E-03
 -3.17936000E-02 -8.39090000E-03   0.0000000       0.0000000
   0.0000000
  0.19626950      5.12426000E-02   0.0000000       0.0000000
   0.0000000
 -0.54660170     -0.14409970       0.0000000       0.0000000
   0.0000000
   1.0274759      0.29332430       0.0000000       0.0000000
   0.0000000
 -0.98489850     -0.41377320       0.0000000       0.0000000
   0.0000000
 -0.29232380     -0.23712270       0.0000000       0.0000000
   0.0000000
   0.0000000       0.0000000       1.0000000       0.0000000
   0.0000000
   0.0000000       0.0000000       0.0000000       1.0000000
   0.0000000
   0.0000000       0.0000000       0.0000000       0.0000000
   1.0000000
  12   4
   1326.84760
   274.589500
   33.1412230
   5.69571790
  0.828751900
  0.297243800
   5.78089700
  0.761610000
  0.145592000
  0.296603000
  6.114200000E-02
  1.999190000E-02
 -8.13940000E-03   0.0000000       0.0000000       0.0000000
 -5.03041000E-02   0.0000000       0.0000000       0.0000000
  0.21672510       0.0000000       0.0000000       0.0000000
 -0.49427110       0.0000000       0.0000000       0.0000000
  0.77218470       0.0000000       0.0000000       0.0000000
  0.34236850       0.0000000       0.0000000       0.0000000
   0.0000000     -1.26270000E-02   0.0000000       0.0000000
   0.0000000      0.22782800       0.0000000       0.0000000
   0.0000000      -1.0847070       0.0000000       0.0000000
   0.0000000       0.0000000     -0.18552700       0.0000000
   0.0000000       0.0000000       1.0781080       0.0000000
   0.0000000       0.0000000       0.0000000       1.0000000
   7   5
   241.769500
   63.4009570
   6.93715910
  0.708600500
  0.215322600
  6.248330000E-02
  2.082780000E-02
  6.94890000E-03   0.0000000       0.0000000       0.0000000
   0.0000000
  5.46930000E-02   0.0000000       0.0000000       0.0000000
   0.0000000
 -0.17219040       0.0000000       0.0000000       0.0000000
   0.0000000
   0.0000000       1.0000000       0.0000000       0.0000000
   0.0000000
   0.0000000       0.0000000       1.0000000       0.0000000
   0.0000000
   0.0000000       0.0000000       0.0000000       1.0000000
   0.0000000
   0.0000000       0.0000000       0.0000000       0.0000000
   1.0000000
   7   3
   64.0534450
   16.8734760
   4.98472000
  0.378124000
  0.521565000
  0.103061000
  3.429990000E-02
 -2.54910000E-02   0.0000000       0.0000000
 -0.12606800       0.0000000       0.0000000
 -0.20097200       0.0000000       0.0000000
  0.96804500       0.0000000       0.0000000
   0.0000000     -0.13981400       0.0000000
   0.0000000       1.0274380       0.0000000
   0.0000000       0.0000000       1.0000000
   3   2
  0.503337000
  0.148067000
  4.977640000E-02
  0.38471500       0.0000000
  0.78875200       0.0000000
   0.0000000       1.0000000
*
* Core MCP
*
* Z-eff    11.00
*  Basis : MCP segmented  (6611/632/3111/42/2 + 1s1p1d1f1g)
M1
   3
  8.54002950D+02  1.57047320D+01  4.32185810D+00
  2.08756090D+00  1.97120010D+00  7.95952500D-01
M2
   3
  7.33886260D+03  1.27293150D+01  1.51731640D+00
  5.44452150D+02  6.05284320D+00  3.20679400D-01
COREREP
   1.0
PROJOP
   3
  14   4
             4692.05140       808.756020       187.461040       39.4601840
   279509.200
   23289.0450
   3880.74090
   902.147950
   1639.41380
   167.270320
   73.1686640
   133.643660
   22.8254750
   9.63323600
   5.24147270
   2.20340300
  0.786348600
  0.310482400
            0.182077000E-01  0.726850000E-02  0.346100000E-02  0.181440000E-02
            0.110023800      0.439215000E-01  0.209140000E-01  0.109640000E-01
            0.407887700      0.162828800      0.775337000E-01  0.406464000E-01
            0.590358200      0.235671100      0.112218800      0.588297000E-01
           -0.511210000E-02  0.734044000E-01  0.414242000E-01  0.121629000E-01
            0.398489000E-01 -0.572185600     -0.322900200     -0.948095000E-01
            0.375013000E-01 -0.538476900     -0.303877500     -0.892241000E-01
            0.100766000E-01  0.812810000E-02 -0.307489900     -0.321579500
           -0.344074000E-01 -0.277541000E-01   1.04995060       1.09806100
           -0.865190000E-02 -0.697890000E-02  0.264014000      0.276111500
             0.00000000      0.646870000E-02 -0.738540000E-02  -1.22860450
             0.00000000      0.167800000E-02 -0.191580000E-02 -0.318706000
             0.00000000       0.00000000      0.158100000E-02  0.783600000E-03
             0.00000000       0.00000000      0.444100000E-03  0.220100000E-03
  10   3
             712.959560       158.053360       29.5963080
   5322.99170
   1068.92120
   315.936150
   109.568020
   48.2672440
   19.0236540
   8.23590960
   3.27298410
   1.07324230
  0.362198100
            0.227374000E-01  0.125516000E-01  0.614850000E-02
            0.156443900      0.863609000E-01  0.423049000E-01
            0.473335000      0.261292600      0.127997100
            0.477387000      0.263529400      0.129092800
            0.317277000E-01 -0.522056900     -0.384196900
            0.387607000E-01 -0.637779400     -0.469360500
           -0.116334000E-01 -0.277668000E-01  0.690829800
           -0.995240000E-02 -0.237545000E-01  0.591005300
             0.00000000      0.484860000E-02  0.124187000E-01
             0.00000000      0.401180000E-02  0.102755000E-01
   7   2
             121.864390       16.3441040
   512.973490
   141.084180
   49.8727250
   19.0449170
   15.5904650
   6.00371920
   2.20312390
            0.397212000E-01  0.196391000E-01
            0.240490900      0.118904300
            0.541495900      0.267728200
            0.365147600      0.180537500
            0.854570000E-02 -0.311084000
            0.179519000E-01 -0.653490500
            0.864650000E-02 -0.314753400
   5   1
             1.63785920
   66.3521410
   19.7844520
   6.89526260
   2.34204110
  0.691751900
            0.605600000E-01
            0.268709800
            0.468294900
            0.422241400
            0.196832900
Spectral Representation Operator
End of Spectral Representation Operator
*
