************************************************************************
* This file is part of OpenMolcas.                                     *
*                                                                      *
* OpenMolcas is free software; you can redistribute it and/or modify   *
* it under the terms of the GNU Lesser General Public License, v. 2.1. *
* OpenMolcas is distributed in the hope that it will be useful, but it *
* is provided "as is" and without any express or implied warranties.   *
* For more details see the full text of the license in the file        *
* LICENSE or in <http://www.gnu.org/licenses/>.                        *
************************************************************************

#Hamiltonian RCP
#Nucleus UNK
#Contraction RAF
#AllElectron NAE

********************************************************************************
* See the file AIMP.README                                                     *
********************************************************************************

********************************************************************************
*    E.1. Elpasolites
********************************************************************************
*         E.1.1. K2NaGaF6
********************************************************************************
*           E.1.1.a. K2NaGaF6 (a=8.246 A)
*             /K.EMB-AIMP.Barandiaran.0s.0s.ECP.K2NaGaF6.
*             /Na.EMB-AIMP.Barandiaran.6s3p.1s1p.ECP.K2NaGaF6.
*             /Na.EMB-AIMP.Barandiaran.0s.0s.ECP.K2NaGaF6.
*             /Ga.EMB-AIMP.Barandiaran.0s.0s.ECP.K2NaGaF6.
*             /F.EMB-AIMP.Barandiaran.0s.0s.ECP.K2NaGaF6.
*           E.1.1.b. K2NaGaF6 (a=8.000 A; 60 Kbar)
*             /K.EMB-AIMP.Barandiaran.0s.0s.ECP.K2NaGaF6-60kbar.
*             /Na.EMB-AIMP.Barandiaran.6s3p.1s1p.ECP.K2NaGaF6-60kbar.
*             /Na.EMB-AIMP.Barandiaran.0s.0s.ECP.K2NaGaF6-60kbar.
*             /Ga.EMB-AIMP.Barandiaran.0s.0s.ECP.K2NaGaF6-60kbar.
*             /F.EMB-AIMP.Barandiaran.0s.0s.ECP.K2NaGaF6-60kbar.
********************************************************************************
*         E.1.2. Cs2NaYCl6
********************************************************************************
*           E.1.2.a. Cs2NaYCl6 (a=10.7396 A, x=0.2439)
*             /Cs.EMB-AIMP.Al-Abdalla.0s.0s.ECP.Cs2NaYCl6.
*             /Na.EMB-AIMP.Al-Abdalla.7s4p.1s1p.ECP.Cs2NaYCl6.
*             /Na.EMB-AIMP.Al-Abdalla.0s.0s.ECP.Cs2NaYCl6.
*             /Y.EMB-AIMP.Al-Abdalla.0s.0s.ECP.Cs2NaYCl6.
*             /Cl.EMB-AIMP.Al-Abdalla.0s.0s.ECP.Cs2NaYCl6.
*           E.1.2.b Cs2NaYCl6 Delta-a/a=-0.6% (a=10.6752 A, x=0.2439)
*             /Cs.EMB-AIMP.Seijo.0s.0s.ECP.Cs2NaYCl6-0006a.
*             /Na.EMB-AIMP.Seijo.7s4p.1s1p.ECP.Cs2NaYCl6-0006a.
*             /Na.EMB-AIMP.Seijo.0s.0s.ECP.Cs2NaYCl6-0006a.
*             /Y.EMB-AIMP.Seijo.0s.0s.ECP.Cs2NaYCl6-0006a.
*             /Cl.EMB-AIMP.Seijo.0s.0s.ECP.Cs2NaYCl6-0006a.
*           E.1.2.c Cs2NaYCl6 Delta-a/a=-1.8% (a=10.5463 A, x=0.2439)
*             /Cs.EMB-AIMP.Seijo.0s.0s.ECP.Cs2NaYCl6-0018a.
*             /Na.EMB-AIMP.Seijo.7s4p.1s1p.ECP.Cs2NaYCl6-0018a.
*             /Na.EMB-AIMP.Seijo.0s.0s.ECP.Cs2NaYCl6-0018a.
*             /Y.EMB-AIMP.Seijo.0s.0s.ECP.Cs2NaYCl6-0018a.
*             /Cl.EMB-AIMP.Seijo.0s.0s.ECP.Cs2NaYCl6-0018a.
*           E.1.2.d Cs2NaYCl6 Delta-a/a=-3.1% (a=10.4067 A, x=0.2439)
*             /Cs.EMB-AIMP.Seijo.0s.0s.ECP.Cs2NaYCl6-0031a.
*             /Na.EMB-AIMP.Seijo.7s4p.1s1p.ECP.Cs2NaYCl6-0031a.
*             /Na.EMB-AIMP.Seijo.0s.0s.ECP.Cs2NaYCl6-0031a.
*             /Y.EMB-AIMP.Seijo.0s.0s.ECP.Cs2NaYCl6-0031a.
*             /Cl.EMB-AIMP.Seijo.0s.0s.ECP.Cs2NaYCl6-0031a.
*           E.1.2.e Cs2NaYCl6 Delta-a/a=-3.6% (a=10.3530 A, x=0.2439)
*             /Cs.EMB-AIMP.Seijo.0s.0s.ECP.Cs2NaYCl6-0036a.
*             /Na.EMB-AIMP.Seijo.7s4p.1s1p.ECP.Cs2NaYCl6-0036a.
*             /Na.EMB-AIMP.Seijo.0s.0s.ECP.Cs2NaYCl6-0036a.
*             /Y.EMB-AIMP.Seijo.0s.0s.ECP.Cs2NaYCl6-0036a.
*             /Cl.EMB-AIMP.Seijo.0s.0s.ECP.Cs2NaYCl6-0036a.
********************************************************************************
*         E.1.3. Cs2NaYBr6
********************************************************************************
*           E.1.3.a. Cs2NaYBr6 (a=11.3047 A, x=0.2446)
*             /Cs.EMB-AIMP.Al-Abdalla.0s.0s.ECP.Cs2NaYBr6.
*             /Na.EMB-AIMP.Al-Abdalla.7s4p.1s1p.ECP.Cs2NaYBr6.
*             /Na.EMB-AIMP.Al-Abdalla.0s.0s.ECP.Cs2NaYBr6.
*             /Y.EMB-AIMP.Al-Abdalla.0s.0s.ECP.Cs2NaYBr6.
*             /Br.EMB-AIMP.Al-Abdalla.0s.0s.ECP.Cs2NaYBr6.
********************************************************************************
*         E.1.4. Cs2NaYF6
********************************************************************************
*           E.1.4.a. Cs2NaYF6 (a=9.075 A, x=0.24)
*             /Cs.EMB-AIMP.Ruiperez.0s.0s.ECP.Cs2NaYF6.
*             /Na.EMB-AIMP.Ruiperez.7s4p.1s1p.ECP.Cs2NaYF6.
*             /Na.EMB-AIMP.Ruiperez.0s.0s.ECP.Cs2NaYF6.
*             /Y.EMB-AIMP.Ruiperez.0s.0s.ECP.Cs2NaYF6.
*             /F.EMB-AIMP.Ruiperez.0s.0s.ECP.Cs2NaYF6.
********************************************************************************

********************************************************************************
*         E.1.1. K2NaGaF6
********************************************************************************
*           E.1.1.a. K2NaGaF6 (a=8.246 A)
*             /K.EMB-AIMP.Barandiaran.0s.0s.ECP.K2NaGaF6.
*             /Na.EMB-AIMP.Barandiaran.6s3p.1s1p.ECP.K2NaGaF6.
*             /Na.EMB-AIMP.Barandiaran.0s.0s.ECP.K2NaGaF6.
*             /Ga.EMB-AIMP.Barandiaran.0s.0s.ECP.K2NaGaF6.
*             /F.EMB-AIMP.Barandiaran.0s.0s.ECP.K2NaGaF6.
********************************************************************************

/K.EMB-AIMP.Barandiaran.0s.0s.ECP.K2NaGaF6.
Z. Barandiaran, L. Seijo, L.G.M. Pettersson. J. Chem. Phys 98 (1993) 4041-4046. doi:10.1063/1.464034
From a SCEI calculation in K2NaGaF6 with a=8.246 A x=0.235
     1.0   0
* s-type functions
    0    0
********************************************************************************
* External AIMP: K(K2NAGAF6)/P=0
*
* Local Potential Parameters: (ECP convention)
*                             A(AIMP)=-Zeff*A(ECP)
********************************************************************************
M1
 13
  3.3150000000e5  4.6370000000e4  1.0076000000e4  2.6820000000e3  8.1800000000e2  2.9060000000e2  1.0557000000e2 34.010000000000 15.770000000000  7.500000000000  2.084000000000
  0.996000000000  0.456400000000
  0.123248472000  0.160753821000  0.301234515000  0.535508774000  0.909246968000  1.193717890000  1.414507950000  2.343089070000  3.182524670000  1.415672900000  2.414318060000
  3.306587520000  0.699589385000
M2
  0
COREREP
 1.0
PROJOP
    1
    9    3
  2.6627978700e2 28.687167100000  3.197836570000
       2282.00000000
        418.50000000
        116.70000000
         39.06000000
          8.89700000
          3.71800000
          1.22800000
          0.57600000
          0.23810000
  0.042847211200 -0.012596122100  0.004157363880
  0.205335128000 -0.063702437700  0.021176716300
  0.469337959000 -0.188434340000  0.064114230500
  0.396700334000 -0.225589110000  0.081367039400
  0.048530402300  0.457407417000 -0.209339987000
 -0.019933730200  0.617704031000 -0.465888816000
  0.011177033400  0.087544175300  0.139241731000
 -0.006928562950 -0.015820964600  0.761508177000
  0.001855146290  0.004010124310  0.311333976000
    6    2
 22.653664400000  1.594850860000
         73.90000000
         18.09000000
          5.70000000
          1.75500000
          0.64030000
          0.22500000
  0.114191658000 -0.035924016500
  0.428521337000 -0.143195186000
  0.536863849000 -0.188721170000
  0.126808682000  0.204477423000
 -0.015376871100  0.630827579000
  0.004986974090  0.316254214000
Spectral Representation Operator
Core primitive basis
Exchange
End of Spectral Representation Operator

/Na.EMB-AIMP.Barandiaran.6s3p.1s1p.ECP.K2NaGaF6.
Z. Barandiaran, L. Seijo, L.G.M. Pettersson. J. Chem. Phys 98 (1993) 4041-4046. doi:10.1063/1.464034
From a SCEI calculation in K2NaGaF6 with a=8.246 A x=0.235
********************************************************************************
* with orthogonalitys-functions
* NA-K2NAGAF6-(6/3)             (6/3)
********************************************************************************
     1.0   1
* s-type functions
    6    1
        553.40000000
        102.18000000
         29.08000000
         10.18100000
          1.89000000
          0.59420000
 -0.015687720500
 -0.072243852200
 -0.192057064000
 -0.123238166000
  0.655405095000
  0.469656787000
* p-type functions
    3    1
         10.47200000
          2.28460000
          0.58140000
  0.229816371000
  0.580075737000
  0.412742096000
********************************************************************************
* External AIMP: NA(K2NAGAF6)/P=0
*
* Local Potential Parameters: (ECP convention)
*                             A(AIMP)=-Zeff*A(ECP)
********************************************************************************
M1
 11
  2.5750000000e5  2.9190000000e4  5.4660000000e3  1.3399000000e3  4.0270000000e2  1.4030000000e2 50.700000000000 14.950000000000  4.839000000000  2.472000000000  1.049300000000
  0.068557528400  0.104812569000  0.204620328000  0.368077851000  0.599380140000  0.936378626000  1.003687360000  1.531736360000  2.469430110000  1.936444660000  0.776874472000
M2
  0
COREREP
 1.0
PROJOP
    1
    6    2
 80.594061600000  5.233774490000
        553.40000000
        102.18000000
         29.08000000
         10.18100000
          1.89000000
          0.59420000
  0.061862461500 -0.015687720500
  0.272920485000 -0.072243852200
  0.500959794000 -0.192057064000
  0.299290292000 -0.123238166000
  0.018435485500  0.655405095000
 -0.003866685150  0.469656787000
    3    1
  2.539740450000
         10.47200000
          2.28460000
          0.58140000
  0.229816371000
  0.580075737000
  0.412742096000
Spectral Representation Operator
Core primitive basis
Exchange
End of Spectral Representation Operator

/Na.EMB-AIMP.Barandiaran.0s.0s.ECP.K2NaGaF6.
Z. Barandiaran, L. Seijo, L.G.M. Pettersson. J. Chem. Phys 98 (1993) 4041-4046. doi:10.1063/1.464034
From a SCEI calculation in K2NaGaF6 with a=8.246 A x=0.235
     1.0   0
* s-type functions
    0    0
********************************************************************************
* External AIMP: NA(K2NAGAF6)/P=0
*
* Local Potential Parameters: (ECP convention)
*                             A(AIMP)=-Zeff*A(ECP)
********************************************************************************
M1
 11
  2.5750000000e5  2.9190000000e4  5.4660000000e3  1.3399000000e3  4.0270000000e2  1.4030000000e2 50.700000000000 14.950000000000  4.839000000000  2.472000000000  1.049300000000
  0.068557528400  0.104812569000  0.204620328000  0.368077851000  0.599380140000  0.936378626000  1.003687360000  1.531736360000  2.469430110000  1.936444660000  0.776874472000
M2
  0
COREREP
 1.0
PROJOP
    1
    6    2
 80.594061600000  5.233774490000
        553.40000000
        102.18000000
         29.08000000
         10.18100000
          1.89000000
          0.59420000
  0.061862461500 -0.015687720500
  0.272920485000 -0.072243852200
  0.500959794000 -0.192057064000
  0.299290292000 -0.123238166000
  0.018435485500  0.655405095000
 -0.003866685150  0.469656787000
    3    1
  2.539740450000
         10.47200000
          2.28460000
          0.58140000
  0.229816371000
  0.580075737000
  0.412742096000
Spectral Representation Operator
Core primitive basis
Exchange
End of Spectral Representation Operator

/Ga.EMB-AIMP.Barandiaran.0s.0s.ECP.K2NaGaF6.
Z. Barandiaran, L. Seijo, L.G.M. Pettersson. J. Chem. Phys 98 (1993) 4041-4046. doi:10.1063/1.464034
From a SCEI calculation in K2NaGaF6 with a=8.246 A x=0.235
     3.0   0
* s-type functions
    0    0
********************************************************************************
* External AIMP: GA(K2NAGAF6)/P=0
*
* Local Potential Parameters: (ECP convention)
*                             A(AIMP)=-Zeff*A(ECP)
********************************************************************************
M1
 13
  3.6800000000e5  5.6990000000e4  1.3710000000e4  3.9630000000e3  1.2912000000e3  4.3180000000e2  1.4460000000e2 66.520000000000 30.830000000000  8.309000000000  4.309000000000
  2.226000000000  0.936000000000
  0.075422116667  0.089829582000  0.160948612000  0.274762721000  0.453132706667  0.602045353333  0.697676170000  1.192888026667  1.095761383333  1.687802710000  1.696053516667
  1.111926123333  0.195084313000
M2
  0
COREREP
 1.0
PROJOP
    2
    9    3
  7.5667854100e2 96.717734200000 13.098044800000
       6490.00000000
       1203.00000000
        340.90000000
        116.10000000
         31.44000000
         14.86000000
          6.63500000
          2.54800000
          1.01700000
  0.039806164300 -0.012770223400  0.004577592400
  0.190044447000 -0.064862999500  0.023277838900
  0.447437975000 -0.191649505000  0.072506314800
  0.418546050000 -0.264682201000  0.107788732000
  0.068437097100  0.290219405000 -0.147243842000
 -0.030032582900  0.655165486000 -0.556108201000
  0.016929196500  0.205116464000 -0.065315627300
  0.000847685845  0.011129728400  0.824513903000
  0.002428430240  0.000964687108  0.405995327000
    6    2
 85.242573800000  9.266881210000
        253.70000000
         63.84000000
         21.18000000
          7.29200000
          2.76700000
          1.00500000
  0.095108130000 -0.037237915200
  0.392800011000 -0.165723723000
  0.543920273000 -0.240466940000
  0.157092546000  0.206538641000
 -0.008467966660  0.646709410000
  0.004183926450  0.300987440000
    4    1
  2.617650160000
         23.34600000
          6.36920000
          1.98100000
          0.61612000
  0.146087757000
  0.418562478000
  0.505026089000
  0.245196164000
Spectral Representation Operator
Core primitive basis
Exchange
End of Spectral Representation Operator

/F.EMB-AIMP.Barandiaran.0s.0s.ECP.K2NaGaF6.
Z. Barandiaran, L. Seijo, L.G.M. Pettersson. J. Chem. Phys 98 (1993) 4041-4046. doi:10.1063/1.464034
From a SCEI calculation in K2NaGaF6 with a=8.246 A x=0.235
    -1.0   0
* s-type functions
    0    0
********************************************************************************
* External AIMP: F(K2NAGAF6)/P=0
*
* Local Potential Parameters: (ECP convention)
*                             A(AIMP)=-Zeff*A(ECP)
********************************************************************************
M1
 11
  2.1900000000e5  2.1540000000e4  3.6390000000e3  8.1960000000e2  2.3160000000e2 71.200000000000 23.030000000000  7.364000000000  2.422000000000  0.858300000000  0.336600000000
 -0.059446009500 -0.100637111000 -0.205253008000 -0.385563062000 -0.676624081000 -1.081606650000 -0.955728941000 -1.378056020000 -2.981004360000 -2.113546800000 -0.062533967100
M2
  0
COREREP
 1.0
PROJOP
    1
    6    2
 51.754878100000  2.786459750000
        205.90000000
         37.19000000
          9.88000000
          1.71300000
          0.64860000
          0.21080000
  0.120783236000 -0.027905353200
  0.458957133000 -0.125758276000
  0.521968977000 -0.216316482000
  0.063870348300  0.263821266000
 -0.024869943700  0.629237194000
  0.007076317410  0.241035022000
    4    1
  1.001733510000
          7.96800000
          1.77800000
          0.45820000
          0.11090000
  0.160537634000
  0.432081436000
  0.593992535000
  0.041452338800
Spectral Representation Operator
Core primitive basis
Exchange
End of Spectral Representation Operator

********************************************************************************
*           E.1.1.b. K2NaGaF6 (a=8.000 A; 60 Kbar)
*             /K.EMB-AIMP.Barandiaran.0s.0s.ECP.K2NaGaF6-60kbar.
*             /Na.EMB-AIMP.Barandiaran.6s3p.1s1p.ECP.K2NaGaF6-60kbar.
*             /Na.EMB-AIMP.Barandiaran.0s.0s.ECP.K2NaGaF6-60kbar.
*             /Ga.EMB-AIMP.Barandiaran.0s.0s.ECP.K2NaGaF6-60kbar.
*             /F.EMB-AIMP.Barandiaran.0s.0s.ECP.K2NaGaF6-60kbar.
********************************************************************************

/K.EMB-AIMP.Barandiaran.0s.0s.ECP.K2NaGaF6-60kbar.
Z. Barandiaran, L. Seijo, L.G.M. Pettersson. J. Chem. Phys 98 (1993) 4041-4046. doi:10.1063/1.464034
From a SCEI calculation in K2NaGaF6 with a=8.000 A x=0.235
     1.0   0
* s-type functions
    0    0
********************************************************************************
* External AIMP: K(K2NAGAF6)/P=60
*
* Local Potential Parameters: (ECP convention)
*                             A(AIMP)=-Zeff*A(ECP)
********************************************************************************
M1
 13
  3.3150000000e5  4.6370000000e4  1.0076000000e4  2.6820000000e3  8.1800000000e2  2.9060000000e2  1.0557000000e2 34.010000000000 15.770000000000  7.510000000000  2.084000000000
  0.996000000000  0.456400000000
  0.123253746000  0.160767159000  0.301238304000  0.535561606000  0.909235855000  1.193883620000  1.414449800000  2.344020220000  3.180289200000  1.416733210000  2.415046440000
  3.316548270000  0.688972578000
M2
  0
COREREP
 1.0
PROJOP
    1
    9    3
  2.6624951700e2 28.657839600000  3.172480520000
       2282.00000000
        418.50000000
        116.70000000
         39.06000000
          8.89700000
          3.71800000
          1.22800000
          0.57600000
          0.23810000
  0.042847191100 -0.012595963200  0.004157056810
  0.205335060000 -0.063701601600  0.021177023900
  0.469337476000 -0.188431674000  0.064103405700
  0.396700557000 -0.225585553000  0.081388362800
  0.048531151900  0.457385982000 -0.209501297000
 -0.019933799700  0.617716576000 -0.465196587000
  0.011176505300  0.087514008000  0.136899233000
 -0.006928017900 -0.015759588900  0.764787338000
  0.001855055120  0.003995475610  0.309633206000
    6    2
 22.624219900000  1.567859570000
         73.90000000
         18.09000000
          5.70000000
          1.75500000
          0.64030000
          0.22500000
  0.114190190000 -0.035940963500
  0.428514946000 -0.143314365000
  0.536864411000 -0.188663825000
  0.126813593000  0.203773351000
 -0.015362384500  0.633407013000
  0.004976830310  0.313760520000
Spectral Representation Operator
Core primitive basis
Exchange
End of Spectral Representation Operator

/Na.EMB-AIMP.Barandiaran.6s3p.1s1p.ECP.K2NaGaF6-60kbar.
Z. Barandiaran, L. Seijo, L.G.M. Pettersson. J. Chem. Phys 98 (1993) 4041-4046. doi:10.1063/1.464034
From a SCEI calculation in K2NaGaF6 with a=8.000 A x=0.235
********************************************************************************
* with orthogonality functions
* NA-K2NAGAF6-(6/3)             (6/3)
********************************************************************************
     1.0   1
* s-type functions
    6    1
        553.40000000
        102.18000000
         29.08000000
         10.18100000
          1.89000000
          0.59420000
 -0.015687720500
 -0.072243852200
 -0.192057064000
 -0.123238166000
  0.655405095000
  0.469656787000
* p-type functions
    3    1
         10.47200000
          2.28460000
          0.58140000
  0.229816371000
  0.580075737000
  0.412742096000
********************************************************************************
* External AIMP: NA(K2NAGAF6)/P=60
*
* Local Potential Parameters: (ECP convention)
*                             A(AIMP)=-Zeff*A(ECP)
********************************************************************************
M1
 11
  2.5750000000e5  2.9190000000e4  5.4660000000e3  1.3399000000e3  4.0270000000e2  1.4030000000e2 50.700000000000 14.950000000000  4.839000000000  2.472000000000  1.049300000000
  0.068561504600  0.104817631000  0.204633662000  0.368092569000  0.599421576000  0.936407083000  1.003782420000  1.531819420000  2.470608170000  1.936010310000  0.775845654000
M2
  0
COREREP
 1.0
PROJOP
    1
    6    2
 80.559853300000  5.200811330000
        553.40000000
        102.18000000
         29.08000000
         10.18100000
          1.89000000
          0.59420000
  0.061862361800 -0.015689692900
  0.272919975000 -0.072260032000
  0.500958556000 -0.192058096000
  0.299290177000 -0.123335909000
  0.018441425900  0.655818767000
 -0.003870023820  0.469283353000
    3    1
  2.506670920000
         10.47200000
          2.28460000
          0.58140000
  0.229820099000
  0.580271273000
  0.412504125000
Spectral Representation Operator
Core primitive basis
Exchange
End of Spectral Representation Operator

/Na.EMB-AIMP.Barandiaran.0s.0s.ECP.K2NaGaF6-60kbar.
Z. Barandiaran, L. Seijo, L.G.M. Pettersson. J. Chem. Phys 98 (1993) 4041-4046. doi:10.1063/1.464034
From a SCEI calculation in K2NaGaF6 with a=8.000 A x=0.235
     1.0   0
* s-type functions
    0    0
********************************************************************************
* External AIMP: NA(K2NAGAF6)/P=60
*
* Local Potential Parameters: (ECP convention)
*                             A(AIMP)=-Zeff*A(ECP)
********************************************************************************
M1
 11
  2.5750000000e5  2.9190000000e4  5.4660000000e3  1.3399000000e3  4.0270000000e2  1.4030000000e2 50.700000000000 14.950000000000  4.839000000000  2.472000000000  1.049300000000
  0.068561504600  0.104817631000  0.204633662000  0.368092569000  0.599421576000  0.936407083000  1.003782420000  1.531819420000  2.470608170000  1.936010310000  0.775845654000
M2
  0
COREREP
 1.0
PROJOP
    1
    6    2
 80.559853300000  5.200811330000
        553.40000000
        102.18000000
         29.08000000
         10.18100000
          1.89000000
          0.59420000
  0.061862361800 -0.015689692900
  0.272919975000 -0.072260032000
  0.500958556000 -0.192058096000
  0.299290177000 -0.123335909000
  0.018441425900  0.655818767000
 -0.003870023820  0.469283353000
    3    1
  2.506670920000
         10.47200000
          2.28460000
          0.58140000
  0.229820099000
  0.580271273000
  0.412504125000
Spectral Representation Operator
Core primitive basis
Exchange
End of Spectral Representation Operator

/Ga.EMB-AIMP.Barandiaran.0s.0s.ECP.K2NaGaF6-60kbar.
Z. Barandiaran, L. Seijo, L.G.M. Pettersson. J. Chem. Phys 98 (1993) 4041-4046. doi:10.1063/1.464034
From a SCEI calculation in K2NaGaF6 with a=8.000 A x=0.235
     3.0   0
* s-type functions
    0    0
********************************************************************************
* External AIMP: GA(K2NAGAF6)/P=60
*
* Local Potential Parameters: (ECP convention)
*                             A(AIMP)=-Zeff*A(ECP)
********************************************************************************
M1
 13
  3.6800000000e5  5.6990000000e4  1.3710000000e4  3.9630000000e3  1.2912000000e3  4.3180000000e2  1.4460000000e2 66.520000000000 30.830000000000  8.309000000000  4.309000000000
  2.226000000000  0.936000000000
  0.075423084000  0.089826812333  0.160955428667  0.274749209000  0.453157420000  0.602008356667  0.697836836667  1.192490500000  1.096324806667  1.687026313333  1.696939583333
  1.112588936667  0.194006046000
M2
  0
COREREP
 1.0
PROJOP
    2
    9    3
  7.5661110100e2 96.650539500000 13.029804500000
       6490.00000000
       1203.00000000
        340.90000000
        116.10000000
         31.44000000
         14.86000000
          6.63500000
          2.54800000
          1.01700000
  0.039806118300 -0.012772748700  0.004563422960
  0.190044082000 -0.064874914000  0.023229883600
  0.447437156000 -0.191689315000  0.072294055200
  0.418544251000 -0.264738609000  0.107580991000
  0.068441847900  0.290278711000 -0.147362378000
 -0.030030419600  0.655537112000 -0.553650452000
  0.016936741900  0.205098643000 -0.066367077600
  0.000841563844  0.010577804200  0.821374531000
  0.002400154200  0.000910339361  0.409192540000
    6    2
 85.175341100000  9.199392120000
        253.70000000
         63.84000000
         21.18000000
          7.29200000
          2.76700000
          1.00500000
  0.095108072200 -0.037239033200
  0.392799760000 -0.165730998000
  0.543920921000 -0.240469363000
  0.157091667000  0.206523887000
 -0.008466813830  0.646805658000
  0.004182541620  0.300886267000
    4    1
  2.550805520000
         23.34600000
          6.36920000
          1.98100000
          0.61612000
  0.146126461000
  0.418673372000
  0.505299027000
  0.244602343000
Spectral Representation Operator
Core primitive basis
Exchange
End of Spectral Representation Operator

/F.EMB-AIMP.Barandiaran.0s.0s.ECP.K2NaGaF6-60kbar.
Z. Barandiaran, L. Seijo, L.G.M. Pettersson. J. Chem. Phys 98 (1993) 4041-4046. doi:10.1063/1.464034
From a SCEI calculation in K2NaGaF6 with a=8.000 A x=0.235
    -1.0   0
* s-type functions
    0    0
********************************************************************************
* External AIMP: F(K2NAGAF6)/P=60
*
* Local Potential Parameters: (ECP convention)
*                             A(AIMP)=-Zeff*A(ECP)
********************************************************************************
M1
 11
  2.1900000000e5  2.1540000000e4  3.6390000000e3  8.2160000000e2  2.3260000000e2 71.500000000000 23.130000000000  7.374000000000  2.422000000000  0.864300000000  0.344600000000
 -0.059515662100 -0.100783473000 -0.205363157000 -0.384621022000 -0.675653018000 -1.081585570000 -0.960100171000 -1.384972470000 -2.990443690000 -2.117240620000 -0.039721138200
M2
  0
COREREP
 1.0
PROJOP
    1
    6    2
 51.729138500000  2.782115640000
        205.90000000
         37.19000000
          9.88000000
          1.71300000
          0.64860000
          0.21080000
  0.120781286000 -0.027892268200
  0.458940994000 -0.125819987000
  0.521963490000 -0.215788583000
  0.063905617900  0.258690239000
 -0.024846544700  0.640589126000
  0.007056709040  0.232565933000
    4    1
  0.994086176000
          7.96800000
          1.77800000
          0.45820000
          0.11090000
  0.160996711000
  0.433224351000
  0.601221492000
  0.023901262700
Spectral Representation Operator
Core primitive basis
Exchange
End of Spectral Representation Operator

********************************************************************************
*         E.1.2. Cs2NaYCl6
********************************************************************************
*           E.1.2.a. Cs2NaYCl6 (a=10.7396 A, x=0.2439)
*             /Cs.EMB-AIMP.Al-Abdalla.0s.0s.ECP.Cs2NaYCl6.
*             /Na.EMB-AIMP.Al-Abdalla.7s4p.1s1p.ECP.Cs2NaYCl6.
*             /Na.EMB-AIMP.Al-Abdalla.0s.0s.ECP.Cs2NaYCl6.
*             /Y.EMB-AIMP.Al-Abdalla.0s.0s.ECP.Cs2NaYCl6.
*             /Cl.EMB-AIMP.Al-Abdalla.0s.0s.ECP.Cs2NaYCl6.
********************************************************************************
*   Cs2NaYCl6
*   P=1 bar a0=10.7396 A, x=0.2439
*   C. Reber, H.U. Gudel, G. Meyer, T. Schleid, C.A. Daul. Inorg. Chem. 28 (1989) 3249-3258. doi:10.1021/ic00315a034
*   Oh5-Fm3m
********************************************************************************

/Cs.EMB-AIMP.Al-Abdalla.0s.0s.ECP.Cs2NaYCl6.
A. Al-Abdalla, Z. Barandiaran, L. Seijo, R. Lindh. J. Chem. Phys. 108 (1998) 2005-2014. doi:10.1063/1.475610
From a SCEI calculation in Cs2NaYCl6 with a=10.7396 A, x=0.2439
     1.0   0
* s-type functions
    0    0
********************************************************************************
* External AIMP:
*
* Local Potential Parameters: (ECP convention)
*                             A(AIMP)=-Zeff*A(ECP)
********************************************************************************
M1
 15
  4.1220000000e5  6.6070000000e4  1.6111000000e4  4.8290000000e3  1.5932000000e3  4.9900000000e2  2.0290000000e2 59.380000000000 27.750000000000  7.896000000000  4.315000000000
  1.866000000000  0.716600000000  0.390400000000  0.249900000000
  0.496324808700  0.591649215800  1.032472864000  1.673707221000  2.263118936000  3.270320536000  6.074078196000  4.558845556000 11.439438950000  1.735297540000 11.596384540000
  2.751587152000  4.300327557000  2.078817731000  0.137629199200
M2
  0
COREREP
 1.0
PROJOP
    2
   11    5
  2.6635715400e3  4.2580163100e2 92.049986000000 19.039925700000  2.389234228000
      33313.72970000
       3974.35337000
        773.54310200
         68.95959780
         23.82251990
         14.68367750
          7.10033807
          4.19897764
          1.83681080
       3628.48866e-4
       1568.36894e-4
  0.051400731232  0.017713712496  0.007728950342  0.003475158893  0.001223169883
  0.254359876061  0.106434067340  0.050184496802  0.023581409399  0.008555167448
  0.736676609491  0.358208729607  0.168004099684  0.077418281567  0.029184134332
  0.288025409682 -0.825579235015 -0.739489961625 -0.390942720883 -0.144864003673
 -0.658799668731 -0.345777226927 -0.356661923265 -0.274413318564 -0.104451062080
  0.786232365519  0.112218163553  0.926930016382  0.875777668192  0.341950206814
 -0.543594818800 -0.040730461010  0.521270119720  0.686329463273  0.374707141411
  0.304811674843  0.016739812040  0.050760226595 -0.429460146331 -0.301130527181
 -0.067898881494 -0.003297786695  0.008617958744 -1.085791202739 -0.840056480104
  0.013543212453  0.000210733999 -0.000991882440 -0.073917256406  0.906222237003
 -0.006034411061 -0.000159447599  0.000496693802  0.023720667601  0.378750467329
   10    4
  3.8190070700e2 77.532204200000 14.190449200000  1.157298465000
       1835.93935000
        412.74490500
        125.93392200
         18.54755560
          8.38114931
          4.59232246
          2.15034415
       4615.53695e-4
       2062.27972e-4
       9242.51022e-5
  0.056520125787  0.021686907394  0.009272738120  0.002895499452
  0.171899236514  0.111813193543  0.053187300783  0.018930354058
  0.737178558440  0.339659458519  0.151122413823  0.050175892731
  0.444446974330 -0.562858154294 -0.442982860886 -0.152517025449
 -0.460759081787 -0.485193638558 -0.216995649630 -0.108832042831
  0.324536875925 -0.003463784316  0.271144558213  0.197253425588
 -0.106213989013 -0.023768939091  0.842773248291  0.361981058338
  0.032403023471  0.005853287609  0.149950755473 -0.508199018888
 -0.024513628795 -0.004775439839 -0.078570531972 -0.573395258674
  0.008754292582  0.001732365898  0.025020547459 -0.044867697368
    7    2
 56.100838900000  6.874997900000
        214.30000000
         64.91000000
         24.62000000
         10.31500000
          4.14400000
          1.72500000
          0.66840000
  0.056355186022  0.025265276789
  0.259335436101  0.114380453948
  0.487532354190  0.219610460900
  0.361650038141  0.038915689882
  0.064477717325 -0.462584439790
 -0.002844159931 -0.526167082761
  0.000709728006 -0.150030083932
Spectral Representation Operator
Core primitive basis
Exchange
End of Spectral Representation Operator

/Na.EMB-AIMP.Al-Abdalla.7s4p.1s1p.ECP.Cs2NaYCl6.
A. Al-Abdalla, Z. Barandiaran, L. Seijo, R. Lindh. J. Chem. Phys. 108 (1998) 2005-2014. doi:10.1063/1.475610
From a SCEI calculation in Cs2NaYCl6 with a=10.7396 A, x=0.2439
********************************************************************************
* with orthogonality functions
********************************************************************************
     1.0   1
* s-type functions
    7    1
       1562.63160000
        235.88220000
         53.17220000
         14.15975900
         21.42552200
          1.93426680
          0.62799346
 -0.004632838193
 -0.034648646009
 -0.126685829324
 -0.151515821411
 -0.073185517808
  0.597657653894
  0.514793252355
* p-type functions
    4    1
         38.80258600
          8.67551940
          2.41015550
          0.65992043
 -0.042769892014
 -0.230470381043
 -0.510539265776
 -0.448800489924
********************************************************************************
* External AIMP:
*
* Local Potential Parameters: (ECP convention)
*                             A(AIMP)=-Zeff*A(ECP)
********************************************************************************
M1
 11
  2.5750000000e5  2.9190000000e4  5.4660000000e3  1.3399000000e3  4.0270000000e2  1.4030000000e2 50.700000000000 14.950000000000  4.839000000000  2.472000000000  1.049300000000
  0.068862017480  0.108277757900  0.201912465400  0.380986090100  0.584201417200  0.977385493100  0.998529304600  1.551019850000  2.516003893000  1.869595026000  0.743226685100
M2
  0
COREREP
 1.0
PROJOP
    1
    7    2
 80.553879880000  5.298400506000
       1562.63160000
        235.88220000
         53.17220000
         14.15975900
         21.42552200
          1.93426680
          0.62799346
  0.019020758085 -0.004632838193
  0.133425663212 -0.034648646009
  0.445452854965 -0.126685829324
  0.470476037405 -0.151515821411
  0.051252902056 -0.073185517808
  0.045587956700  0.597657653894
 -0.013867882109  0.514793252355
    4    1
  2.739692677000
         38.80258600
          8.67551940
          2.41015550
          0.65992043
 -0.042769892014
 -0.230470381043
 -0.510539265776
 -0.448800489924
Spectral Representation Operator
Core primitive basis
Exchange
End of Spectral Representation Operator

/Na.EMB-AIMP.Al-Abdalla.0s.0s.ECP.Cs2NaYCl6.
A. Al-Abdalla, Z. Barandiaran, L. Seijo, R. Lindh. J. Chem. Phys. 108 (1998) 2005-2014. doi:10.1063/1.475610
From a SCEI calculation in Cs2NaYCl6 with a=10.7396 A, x=0.2439
     1.0   0
* s-type functions
    0    0
********************************************************************************
* External AIMP:
*
* Local Potential Parameters: (ECP convention)
*                             A(AIMP)=-Zeff*A(ECP)
********************************************************************************
M1
 11
  2.5750000000e5  2.9190000000e4  5.4660000000e3  1.3399000000e3  4.0270000000e2  1.4030000000e2 50.700000000000 14.950000000000  4.839000000000  2.472000000000  1.049300000000
  0.068862017480  0.108277757900  0.201912465400  0.380986090100  0.584201417200  0.977385493100  0.998529304600  1.551019850000  2.516003893000  1.869595026000  0.743226685100
M2
  0
COREREP
 1.0
PROJOP
    1
    7    2
 80.553879880000  5.298400506000
       1562.63160000
        235.88220000
         53.17220000
         14.15975900
         21.42552200
          1.93426680
          0.62799346
  0.019020758085 -0.004632838193
  0.133425663212 -0.034648646009
  0.445452854965 -0.126685829324
  0.470476037405 -0.151515821411
  0.051252902056 -0.073185517808
  0.045587956700  0.597657653894
 -0.013867882109  0.514793252355
    4    1
  2.739692677000
         38.80258600
          8.67551940
          2.41015550
          0.65992043
 -0.042769892014
 -0.230470381043
 -0.510539265776
 -0.448800489924
Spectral Representation Operator
Core primitive basis
Exchange
End of Spectral Representation Operator

/Y.EMB-AIMP.Al-Abdalla.0s.0s.ECP.Cs2NaYCl6.
A. Al-Abdalla, Z. Barandiaran, L. Seijo, R. Lindh. J. Chem. Phys. 108 (1998) 2005-2014. doi:10.1063/1.475610
From a SCEI calculation in Cs2NaYCl6 with a=10.7396 A, x=0.2439
     3.0   0
* s-type functions
    0    0
********************************************************************************
* External AIMP:
*
* Local Potential Parameters: (ECP convention)
*                             A(AIMP)=-Zeff*A(ECP)
********************************************************************************
M1
 13
  3.9176000000e5  6.3830000000e4  1.5627000000e4  4.5518000000e3  1.4648000000e3  4.9768000000e2  1.8257000000e2 82.104000000000 29.159000000000 11.058200000000  4.877000000000
  1.386200000000  0.705250000000
  0.099447077510  0.115207714700  0.206027902200  0.358066184900  0.565413787500  0.649406022900  0.994650968200  1.544381488000  1.041110888000  3.277375682000  0.971856819600
  1.628818978000  0.548236485700
M2
  0
COREREP
 1.0
PROJOP
    2
   13    4
  1.2321875480e3  1.7182466500e2 29.797442350000  4.559917998000
      22517.10490000
       3391.91890000
        768.92999000
        207.12231700
        309.54630100
         35.21428790
         14.98494400
         27.52608110
          4.73467785
          2.10940082
          3.44043954
       6786.34226e-4
       2947.80988e-4
  0.016560923614  0.005796371285  0.002409900080 -0.000903892913
  0.116515443603  0.040780743112  0.016955007061 -0.006359396748
  0.428179542435  0.149864081414  0.062307509982 -0.023369980026
  0.553166816265  0.193609989671  0.080495314489 -0.030191768093
 -0.001339407369  0.116123585862  0.057624734578 -0.022413273509
  0.007737803133 -0.670850009575 -0.332900103425  0.129482263541
  0.005134622890 -0.445160177307 -0.220904623912  0.085921363306
  0.036252338895  0.003158834974 -0.276207545552  0.131635017666
 -0.113099592205 -0.009854893732  0.861708836391 -0.410673277136
 -0.052487589149 -0.004573487872  0.399904354108 -0.190586454156
  0.145272453096 -0.003975288273 -0.001197106851 -0.339108547488
  0.006901107749  0.004161303156  0.004452345485  0.936458187309
 -0.001818263141 -0.001717001541  0.001180814641  0.364977472886
   10    3
  1.5659543620e2 23.996874650000  2.816984434000
        981.42971200
        230.97508700
         72.08684850
         24.82378740
         11.44808270
          4.71644961
          2.02374663
          1.10079266
       4804.63613e-4
       1967.85767e-4
  0.026051339293  0.012283145974 -0.004362271404
  0.171614868229  0.080916011807 -0.028736742619
  0.491725916373  0.231847627573 -0.082339026005
  0.456213851129  0.215103771285 -0.076392565251
  0.014986686137 -0.362454259681  0.171208821206
  0.025261325503 -0.610947273477  0.288586931226
  0.009002364787 -0.217722946513  0.102843567226
 -0.019469564321  0.001898866181 -0.449607497262
  0.011852721050 -0.005587579480 -0.649805058463
 -0.003862166754  0.001399425574 -0.082668984172
    7    1
 13.473190010000
         94.59558890
         26.71735310
          8.93579600
          2.97297813
          1.47868989
       4818.25361e-4
       1425.75771e-4
 -0.047834675193
 -0.250215431475
 -0.528869592675
 -0.398526331470
 -0.020134893174
 -0.025891655357
  0.006587232231
Spectral Representation Operator
Core primitive basis
Exchange
End of Spectral Representation Operator

/Cl.EMB-AIMP.Al-Abdalla.0s.0s.ECP.Cs2NaYCl6.
A. Al-Abdalla, Z. Barandiaran, L. Seijo, R. Lindh. J. Chem. Phys. 108 (1998) 2005-2014. doi:10.1063/1.475610
From a SCEI calculation in Cs2NaYCl6 with a=10.7396 A, x=0.2439
    -1.0   0
* s-type functions
    0    0
********************************************************************************
* External AIMP:
*
* Local Potential Parameters: (ECP convention)
*                             A(AIMP)=-Zeff*A(ECP)
********************************************************************************
M1
 13
  3.6510000000e5  5.3630000000e4  1.2063000000e4  3.2760000000e3  1.0364000000e3  3.5920000000e2  1.2440000000e2 46.910000000000 17.980000000000  6.987000000000  1.446000000000
  0.587200000000  0.212400000000
 -0.100310168400 -0.127345056100 -0.229722762500 -0.414812352800 -0.651983745600 -1.138914165000 -1.272932887000 -1.279445140000 -3.415419246000 -2.795224666000 -2.397730342000
 -3.621231258000 -0.554928211000
M2
  0
COREREP
 1.0
PROJOP
    1
    9    3
  2.0833815280e2 20.795218430000  1.922778020000
       1364.96150000
        206.03730000
         44.78080200
         59.37822900
          5.18049520
          2.02243360
          3.42519800
          0.45919951
          0.14963825
 -0.065292470237  0.018782009075 -0.005509623725
 -0.363440619600  0.116632636299 -0.034559516327
 -0.487682604365  0.205846115555 -0.063175802255
 -0.153081127672  0.092407167661 -0.028830737461
 -0.358732226176 -0.653486883692  0.259505909241
 -0.167377876791 -0.405900031149  0.220264381377
  0.432776111008 -0.031503798397  0.104492816016
  0.020921350150 -0.014136931312 -0.760444721254
 -0.006695300820  0.001532133095 -0.436320429291
    6    2
 15.685963340000  0.732628739100
         63.76258100
         14.19345700
          3.79556670
          1.04115910
          0.09954514
          0.35250026
  0.100441672053  0.025918688189
  0.457173582762  0.126063215201
  0.578083738553  0.158867930615
  0.067802353352 -0.221708443719
 -0.000351738547 -0.269379001290
 -0.000577935968 -0.676818149834
Spectral Representation Operator
Core primitive basis
Exchange
End of Spectral Representation Operator

********************************************************************************
*           E.1.2.b Cs2NaYCl6 Delta-a/a=-0.6% (a=10.6752 A, x=0.2439)
*             /Cs.EMB-AIMP.Seijo.0s.0s.ECP.Cs2NaYCl6-0006a.
*             /Na.EMB-AIMP.Seijo.7s4p.1s1p.ECP.Cs2NaYCl6-0006a.
*             /Na.EMB-AIMP.Seijo.0s.0s.ECP.Cs2NaYCl6-0006a.
*             /Y.EMB-AIMP.Seijo.0s.0s.ECP.Cs2NaYCl6-0006a.
*             /Cl.EMB-AIMP.Seijo.0s.0s.ECP.Cs2NaYCl6-0006a.
********************************************************************************
*   Cs2NaYCl6 with Delta.a/a0=-0.6% (a=10.6752 A, x=0.2439)
*   P=1 bar a0=10.7396 A, x=0.2439
*   C. Reber, H.U. Gudel, G. Meyer, T. Schleid, C.A. Daul. Inorg. Chem. 28 (1989) 3249-3258. doi:10.1021/ic00315a034
*   Oh5-Fm3m
********************************************************************************

/Cs.EMB-AIMP.Seijo.0s.0s.ECP.Cs2NaYCl6-0006a.
L. Seijo, Z. Barandiaran. J. Chem. Phys. 118 (2003) 1921-1928. doi:10.1063/1.1531659
From a SCEI calculation in Cs2NaYCl6 with a=10.6752 A, x=0.2439
     1.0   0
* s-type functions
    0    0
********************************************************************************
* External AIMP:
*
* Local Potential Parameters: (ECP convention)
*                             A(AIMP)=-Zeff*A(ECP)
********************************************************************************
M1
 15
  4.1220000000e5  6.6070000000e4  1.6111000000e4  4.8290000000e3  1.5932000000e3  4.9900000000e2  2.0290000000e2 59.380000000000 27.750000000000  7.896000000000  4.315000000000
  1.866000000000  0.716600000000  0.390400000000  0.249900000000
  0.496326004600  0.591650520800  1.032475407000  1.673710621000  2.263125944000  3.270330444000  6.074095678000  4.558874251000 11.439484120000  1.735338218000 11.596566790000
  2.751726806000  4.297552709000  2.090416151000  0.128326335700
M2
  0
COREREP
 1.0
PROJOP
    2
   11    5
  2.6635715400e3  4.2580163100e2 92.049986000000 19.039925700000  2.384903837000
      33313.72970000
       3974.35337000
        773.54310200
         68.95959780
         23.82251990
         14.68367750
          7.10033807
          4.19897764
          1.83681080
       3628.48866e-4
       1568.36894e-4
  0.051400731232  0.017713712496  0.007728950342  0.003475158893  0.001223335690
  0.254359876061  0.106434067340  0.050184496802  0.023581409399  0.008556327145
  0.736676609491  0.358208729607  0.168004099684  0.077418281567  0.029188090389
  0.288025409682 -0.825579235015 -0.739489961625 -0.390942720883 -0.144883799685
 -0.658799668731 -0.345777226927 -0.356661923265 -0.274413318564 -0.104465335567
  0.786232365519  0.112218163553  0.926930016382  0.875777668192  0.341998598884
 -0.543594818800 -0.040730461010  0.521270119720  0.686329463273  0.374760169173
  0.304811674843  0.016739812040  0.050760226595 -0.429460146331 -0.301178959517
 -0.067898881494 -0.003297786695  0.008617958744 -1.085791202739 -0.840191590608
  0.013543212453  0.000210733999 -0.000991882440 -0.073917256406  0.906640691475
 -0.006034411061 -0.000159447599  0.000496693802  0.023720667601  0.378391597048
   10    4
  3.8190070700e2 77.532204200000 14.190449200000  1.152966648000
       1835.93935000
        412.74490500
        125.93392200
         18.54755560
          8.38114931
          4.59232246
          2.15034415
       4615.53695e-4
       2062.27972e-4
       9242.51022e-5
  0.056520125787  0.021686907394  0.009272738120  0.002895558318
  0.171899236514  0.111813193543  0.053187300783  0.018930738914
  0.737178558440  0.339659458519  0.151122413823  0.050176912813
  0.444446974330 -0.562858154294 -0.442982860886 -0.152517795047
 -0.460759081787 -0.485193638558 -0.216995649630 -0.108832591996
  0.324536875925 -0.003463784316  0.271144558213  0.197243547616
 -0.106213989013 -0.023768939091  0.842773248291  0.361962931206
  0.032403023471  0.005853287609  0.149950755473 -0.507346583195
 -0.024513628795 -0.004775439839 -0.078570531972 -0.576101811308
  0.008754292582  0.001732365898  0.025020547459 -0.042310402219
    7    2
 56.100838900000  6.874997900000
        214.30000000
         64.91000000
         24.62000000
         10.31500000
          4.14400000
          1.72500000
          0.66840000
  0.056355186022  0.025265276789
  0.259335436101  0.114380453948
  0.487532354190  0.219610460900
  0.361650038141  0.038915689882
  0.064477717325 -0.462584439790
 -0.002844159931 -0.526167082761
  0.000709728006 -0.150030083932
Spectral Representation Operator
Core primitive basis
Exchange
End of Spectral Representation Operator

/Na.EMB-AIMP.Seijo.7s4p.1s1p.ECP.Cs2NaYCl6-0006a.
L. Seijo, Z. Barandiaran. J. Chem. Phys. 118 (2003) 1921-1928. doi:10.1063/1.1531659
From a SCEI calculation in Cs2NaYCl6 with a=10.6752 A, x=0.2439
********************************************************************************
* with orthogonality functions
********************************************************************************
     1.0   1
* s-type functions
    7    1
       1562.63160000
        235.88220000
         53.17220000
         14.15975900
         21.42552200
          1.93426680
          0.62799346
 -0.004632914361
 -0.034648994695
 -0.126689242969
 -0.151529817247
 -0.073176859368
  0.597692012354
  0.514762230322
* p-type functions
    4    1
         38.80258600
          8.67551940
          2.41015550
          0.65992043
  0.042769735200
  0.230468558131
  0.510538695998
  0.448802676914
********************************************************************************
* External AIMP:
*
* Local Potential Parameters: (ECP convention)
*                             A(AIMP)=-Zeff*A(ECP)
********************************************************************************
M1
 11
  2.5750000000e5  2.9190000000e4  5.4660000000e3  1.3399000000e3  4.0270000000e2  1.4030000000e2 50.700000000000 14.950000000000  4.839000000000  2.472000000000  1.049300000000
  0.068862072090  0.108277818100  0.201912667700  0.380986258700  0.584202163700  0.977385810700  0.998529754300  1.551012244000  2.516038938000  1.869572028000  0.743220244900
M2
  0
COREREP
 1.0
PROJOP
    1
    7    2
 80.549071040000  5.293587088000
       1562.63160000
        235.88220000
         53.17220000
         14.15975900
         21.42552200
          1.93426680
          0.62799346
  0.019020757290 -0.004632914361
  0.133425665079 -0.034648994695
  0.445452781333 -0.126689242969
  0.470475619931 -0.151529817247
  0.051253273584 -0.073176859368
  0.045588368934  0.597692012354
 -0.013868273640  0.514762230322
    4    1
  2.734937479000
         38.80258600
          8.67551940
          2.41015550
          0.65992043
  0.042769735200
  0.230468558131
  0.510538695998
  0.448802676914
Spectral Representation Operator
Core primitive basis
Exchange
End of Spectral Representation Operator

/Na.EMB-AIMP.Seijo.0s.0s.ECP.Cs2NaYCl6-0006a.
L. Seijo, Z. Barandiaran. J. Chem. Phys. 118 (2003) 1921-1928. doi:10.1063/1.1531659
From a SCEI calculation in Cs2NaYCl6 with a=10.6752 A, x=0.2439
     1.0   0
* s-type functions
    0    0
********************************************************************************
* External AIMP:
*
* Local Potential Parameters: (ECP convention)
*                             A(AIMP)=-Zeff*A(ECP)
********************************************************************************
M1
 11
  2.5750000000e5  2.9190000000e4  5.4660000000e3  1.3399000000e3  4.0270000000e2  1.4030000000e2 50.700000000000 14.950000000000  4.839000000000  2.472000000000  1.049300000000
  0.068862072090  0.108277818100  0.201912667700  0.380986258700  0.584202163700  0.977385810700  0.998529754300  1.551012244000  2.516038938000  1.869572028000  0.743220244900
M2
  0
COREREP
 1.0
PROJOP
    1
    7    2
 80.549071040000  5.293587088000
       1562.63160000
        235.88220000
         53.17220000
         14.15975900
         21.42552200
          1.93426680
          0.62799346
  0.019020757290 -0.004632914361
  0.133425665079 -0.034648994695
  0.445452781333 -0.126689242969
  0.470475619931 -0.151529817247
  0.051253273584 -0.073176859368
  0.045588368934  0.597692012354
 -0.013868273640  0.514762230322
    4    1
  2.734937479000
         38.80258600
          8.67551940
          2.41015550
          0.65992043
  0.042769735200
  0.230468558131
  0.510538695998
  0.448802676914
Spectral Representation Operator
Core primitive basis
Exchange
End of Spectral Representation Operator

/Y.EMB-AIMP.Seijo.0s.0s.ECP.Cs2NaYCl6-0006a.
L. Seijo, Z. Barandiaran. J. Chem. Phys. 118 (2003) 1921-1928. doi:10.1063/1.1531659
From a SCEI calculation in Cs2NaYCl6 with a=10.6752 A, x=0.2439
     3.0   0
* s-type functions
    0    0
********************************************************************************
* External AIMP:
*
* Local Potential Parameters: (ECP convention)
*                             A(AIMP)=-Zeff*A(ECP)
********************************************************************************
M1
 13
  3.9176000000e5  6.3830000000e4  1.5627000000e4  4.5518000000e3  1.4648000000e3  4.9768000000e2  1.8257000000e2 82.104000000000 29.159000000000 11.058200000000  4.877000000000
  1.386200000000  0.705250000000
  0.099446697980  0.115211160700  0.206022232100  0.358081289600  0.565391013700  0.649458087700  0.994557938500  1.544538945000  1.040890377000  3.277869701000  0.971183366200
  1.630499384000  0.546849806600
M2
  0
COREREP
 1.0
PROJOP
    2
   13    4
  1.2321763540e3  1.7181356830e2 29.786461770000  4.548758806000
      22517.10490000
       3391.91890000
        768.92999000
        207.12231700
        309.54630100
         35.21428790
         14.98494400
         27.52608110
          4.73467785
          2.10940082
          3.44043954
       6786.34226e-4
       2947.80988e-4
  0.016560923553  0.005796371214  0.002409901557 -0.000904137415
  0.116515443173  0.040780742608  0.016955017458 -0.006361116955
  0.428179540855  0.149864079559  0.062307548189 -0.023376301570
  0.553166814223  0.193609987274  0.080495363849 -0.030199934920
 -0.001339408346  0.116123618447  0.057623980598 -0.022424865224
  0.007737808773 -0.670850197819 -0.332895747653  0.129549229287
  0.005134626632 -0.445160302222 -0.220901733524  0.085965800188
  0.036252343599  0.003159055542 -0.276211806774  0.131644911103
 -0.113099606879 -0.009855581859  0.861722130497 -0.410704142555
 -0.052487595959 -0.004573807220  0.399910523676 -0.190600778270
  0.145272458225 -0.003973802691 -0.001230226190 -0.339486594097
  0.006901150139  0.004159356520  0.004503629186  0.937683270500
 -0.001818303541 -0.001714988404  0.001129949832  0.363929221390
   10    3
  1.5658431290e2 23.985876540000  2.806544633000
        981.42971200
        230.97508700
         72.08684850
         24.82378740
         11.44808270
          4.71644961
          2.02374663
          1.10079266
       4804.63613e-4
       1967.85767e-4
 -0.026051337760 -0.012283123201 -0.004362350562
 -0.171614858129 -0.080915861788 -0.028737264076
 -0.491725887431 -0.231847197725 -0.082340520129
 -0.456213824277 -0.215103372480 -0.076393951470
 -0.014986739732  0.362453294051  0.171206330522
 -0.025261415843  0.610945645825  0.288582732967
 -0.009002396981  0.217722366468  0.102842071095
  0.019469779637 -0.001898442121 -0.449241351203
 -0.011852973796  0.005602333684 -0.650907437888
  0.003862326159 -0.001416295900 -0.081625115835
    7    1
 13.462177660000
         94.59558890
         26.71735310
          8.93579600
          2.97297813
          1.47868989
       4818.25361e-4
       1425.75771e-4
  0.047834345543
  0.250213707131
  0.528866548794
  0.398524804404
  0.020143303788
  0.025897100073
 -0.006590056794
Spectral Representation Operator
Core primitive basis
Exchange
End of Spectral Representation Operator

/Cl.EMB-AIMP.Seijo.0s.0s.ECP.Cs2NaYCl6-0006a.
L. Seijo, Z. Barandiaran. J. Chem. Phys. 118 (2003) 1921-1928. doi:10.1063/1.1531659
From a SCEI calculation in Cs2NaYCl6 with a=10.6752 A, x=0.2439
    -1.0   0
* s-type functions
    0    0
********************************************************************************
* External AIMP:
*
* Local Potential Parameters: (ECP convention)
*                             A(AIMP)=-Zeff*A(ECP)
********************************************************************************
M1
 13
  3.6510000000e5  5.3630000000e4  1.2063000000e4  3.2760000000e3  1.0364000000e3  3.5920000000e2  1.2440000000e2 46.910000000000 17.980000000000  6.987000000000  1.446000000000
  0.587200000000  0.212400000000
 -0.100320230200 -0.127344944800 -0.229761690600 -0.414796250900 -0.652112313600 -1.138847403000 -1.273295150000 -1.279257695000 -3.416303393000 -2.795141943000 -2.398647622000
 -3.632325985000 -0.541845380100
M2
  0
COREREP
 1.0
PROJOP
    1
    9    3
  2.0833121390e2 20.789229480000  1.920447142000
       1364.96150000
        206.03730000
         44.78080200
         59.37822900
          5.18049520
          2.02243360
          3.42519800
          0.45919951
          0.14963825
 -0.065292435159  0.018781745321  0.005510977724
 -0.363440438305  0.116631060255  0.034573122882
 -0.487683518047  0.205845593447  0.063273940763
 -0.153079967500  0.092403477855  0.028775345933
 -0.358735313604 -0.653449563074 -0.260529240421
 -0.167379261510 -0.405888112577 -0.222573871432
  0.432779707755 -0.031534453087 -0.102039622200
  0.020921550165 -0.014173588463  0.762492059555
 -0.006695181364  0.001548332595  0.434827206018
    6    2
 15.679923240000  0.730024280300
         63.76258100
         14.19345700
          3.79556670
          1.04115910
          0.09954514
          0.35250026
  0.100439681354 -0.025932498954
  0.457163958155 -0.126163321279
  0.578083773698 -0.158835802312
  0.067818352848  0.220954470193
 -0.000358726011  0.265893033069
 -0.000570953943  0.679976238402
Spectral Representation Operator
Core primitive basis
Exchange
End of Spectral Representation Operator

********************************************************************************
*           E.1.2.c Cs2NaYCl6 Delta-a/a=-1.8% (a=10.5463 A, x=0.2439)
*             /Cs.EMB-AIMP.Seijo.0s.0s.ECP.Cs2NaYCl6-0018a.
*             /Na.EMB-AIMP.Seijo.7s4p.1s1p.ECP.Cs2NaYCl6-0018a.
*             /Na.EMB-AIMP.Seijo.0s.0s.ECP.Cs2NaYCl6-0018a.
*             /Y.EMB-AIMP.Seijo.0s.0s.ECP.Cs2NaYCl6-0018a.
*             /Cl.EMB-AIMP.Seijo.0s.0s.ECP.Cs2NaYCl6-0018a.
********************************************************************************
*   Cs2NaYCl6 with Delta.a/a0=-1.8% (a=10.5463 A, x=0.2439)
*   P=1 bar a0=10.7396 A, x=0.2439
*   C. Reber, H.U. Gudel, G. Meyer, T. Schleid, C.A. Daul. Inorg. Chem. 28 (1989) 3249-3258. doi:10.1021/ic00315a034
*   Oh5-Fm3m
********************************************************************************

/Cs.EMB-AIMP.Seijo.0s.0s.ECP.Cs2NaYCl6-0018a.
L. Seijo, Z. Barandiaran. J. Chem. Phys. 118 (2003) 1921-1928. doi:10.1063/1.1531659
From a SCEI calculation in Cs2NaYCl6 with a=10.5463 A, x=0.2439
     1.0   0
* s-type functions
    0    0
********************************************************************************
* External AIMP:
*
* Local Potential Parameters: (ECP convention)
*                             A(AIMP)=-Zeff*A(ECP)
********************************************************************************
M1
 15
  4.1220000000e5  6.6070000000e4  1.6111000000e4  4.8290000000e3  1.5932000000e3  4.9900000000e2  2.0290000000e2 59.380000000000 27.750000000000  7.896000000000  4.315000000000
  1.866000000000  0.716600000000  0.390400000000  0.249900000000
  0.496328517000  0.591653242200  1.032480778000  1.673717680000  2.263140741000  3.270351042000  6.074132631000  4.558933241000 11.439581210000  1.735408589000 11.596990100000
  2.751911573000  4.292194995000  2.113780741000  0.109394912000
M2
  0
COREREP
 1.0
PROJOP
    2
   11    5
  2.6635715400e3  4.2580163100e2 92.049986000000 19.039925700000  2.376049806000
      33313.72970000
       3974.35337000
        773.54310200
         68.95959780
         23.82251990
         14.68367750
          7.10033807
          4.19897764
          1.83681080
       3628.48866e-4
       1568.36894e-4
  0.051400731232  0.017713712496  0.007728950342  0.003475158893  0.001223698587
  0.254359876061  0.106434067340  0.050184496802  0.023581409399  0.008558865343
  0.736676609491  0.358208729607  0.168004099684  0.077418281567  0.029196748912
  0.288025409682 -0.825579235015 -0.739489961625 -0.390942720883 -0.144927128017
 -0.658799668731 -0.345777226927 -0.356661923265 -0.274413318564 -0.104496576526
  0.786232365519  0.112218163553  0.926930016382  0.875777668192  0.342104544499
 -0.543594818800 -0.040730461010  0.521270119720  0.686329463273  0.374876263791
  0.304811674843  0.016739812040  0.050760226595 -0.429460146331 -0.301285065024
 -0.067898881494 -0.003297786695  0.008617958744 -1.085791202739 -0.840487590552
  0.013543212453  0.000210733999 -0.000991882440 -0.073917256406  0.907558401619
 -0.006034411061 -0.000159447599  0.000496693802  0.023720667601  0.377604472161
   10    4
  3.8190070700e2 77.532204200000 14.190449200000  1.144102869000
       1835.93935000
        412.74490500
        125.93392200
         18.54755560
          8.38114931
          4.59232246
          2.15034415
       4615.53695e-4
       2062.27972e-4
       9242.51022e-5
  0.056520125787  0.021686907394  0.009272738120 -0.002895695828
  0.171899236514  0.111813193543  0.053187300783 -0.018931637930
  0.737178558440  0.339659458519  0.151122413823 -0.050179295701
  0.444446974330 -0.562858154294 -0.442982860886  0.152520291581
 -0.460759081787 -0.485193638558 -0.216995649630  0.108834373455
  0.324536875925 -0.003463784316  0.271144558213 -0.197224592505
 -0.106213989013 -0.023768939091  0.842773248291 -0.361928146558
  0.032403023471  0.005853287609  0.149950755473  0.505600979462
 -0.024513628795 -0.004775439839 -0.078570531972  0.581677886287
  0.008754292582  0.001732365898  0.025020547459  0.037023149744
    7    2
 56.100838900000  6.874997900000
        214.30000000
         64.91000000
         24.62000000
         10.31500000
          4.14400000
          1.72500000
          0.66840000
  0.056355186022  0.025265276789
  0.259335436101  0.114380453948
  0.487532354190  0.219610460900
  0.361650038141  0.038915689882
  0.064477717325 -0.462584439790
 -0.002844159931 -0.526167082761
  0.000709728006 -0.150030083932
Spectral Representation Operator
Core primitive basis
Exchange
End of Spectral Representation Operator

/Na.EMB-AIMP.Seijo.7s4p.1s1p.ECP.Cs2NaYCl6-0018a.
L. Seijo, Z. Barandiaran. J. Chem. Phys. 118 (2003) 1921-1928. doi:10.1063/1.1531659
From a SCEI calculation in Cs2NaYCl6 with a=10.5463 A, x=0.2439
********************************************************************************
* with orthogonality functions
********************************************************************************
     1.0   1
* s-type functions
    7    1
       1562.63160000
        235.88220000
         53.17220000
         14.15975900
         21.42552200
          1.93426680
          0.62799346
 -0.004633078573
 -0.034649747004
 -0.126696594726
 -0.151559969324
 -0.073158204229
  0.597765866759
  0.514695552510
* p-type functions
    4    1
         38.80258600
          8.67551940
          2.41015550
          0.65992043
 -0.042769457063
 -0.230464832006
 -0.510538670725
 -0.448805813276
********************************************************************************
* External AIMP:
*
* Local Potential Parameters: (ECP convention)
*                             A(AIMP)=-Zeff*A(ECP)
********************************************************************************
M1
 11
  2.5750000000e5  2.9190000000e4  5.4660000000e3  1.3399000000e3  4.0270000000e2  1.4030000000e2 50.700000000000 14.950000000000  4.839000000000  2.472000000000  1.049300000000
  0.068862212210  0.108277975600  0.201913179700  0.380986699700  0.584204004600  0.977386628300  0.998531419700  1.550996907000  2.516119823000  1.869519388000  0.743201762400
M2
  0
COREREP
 1.0
PROJOP
    1
    7    2
 80.539253680000  5.283769779000
       1562.63160000
        235.88220000
         53.17220000
         14.15975900
         21.42552200
          1.93426680
          0.62799346
  0.019020755394 -0.004633078573
  0.133425666976 -0.034649747004
  0.445452621336 -0.126696594726
  0.470474757134 -0.151559969324
  0.051254035913 -0.073158204229
  0.045589255314  0.597765866759
 -0.013869084074  0.514695552510
    4    1
  2.725234955000
         38.80258600
          8.67551940
          2.41015550
          0.65992043
 -0.042769457063
 -0.230464832006
 -0.510538670725
 -0.448805813276
Spectral Representation Operator
Core primitive basis
Exchange
End of Spectral Representation Operator

/Na.EMB-AIMP.Seijo.0s.0s.ECP.Cs2NaYCl6-0018a.
L. Seijo, Z. Barandiaran. J. Chem. Phys. 118 (2003) 1921-1928. doi:10.1063/1.1531659
From a SCEI calculation in Cs2NaYCl6 with a=10.5463 A, x=0.2439
     1.0   0
* s-type functions
    0    0
********************************************************************************
* External AIMP:
*
* Local Potential Parameters: (ECP convention)
*                             A(AIMP)=-Zeff*A(ECP)
********************************************************************************
M1
 11
  2.5750000000e5  2.9190000000e4  5.4660000000e3  1.3399000000e3  4.0270000000e2  1.4030000000e2 50.700000000000 14.950000000000  4.839000000000  2.472000000000  1.049300000000
  0.068862212210  0.108277975600  0.201913179700  0.380986699700  0.584204004600  0.977386628300  0.998531419700  1.550996907000  2.516119823000  1.869519388000  0.743201762400
M2
  0
COREREP
 1.0
PROJOP
    1
    7    2
 80.539253680000  5.283769779000
       1562.63160000
        235.88220000
         53.17220000
         14.15975900
         21.42552200
          1.93426680
          0.62799346
  0.019020755394 -0.004633078573
  0.133425666976 -0.034649747004
  0.445452621336 -0.126696594726
  0.470474757134 -0.151559969324
  0.051254035913 -0.073158204229
  0.045589255314  0.597765866759
 -0.013869084074  0.514695552510
    4    1
  2.725234955000
         38.80258600
          8.67551940
          2.41015550
          0.65992043
 -0.042769457063
 -0.230464832006
 -0.510538670725
 -0.448805813276
Spectral Representation Operator
Core primitive basis
Exchange
End of Spectral Representation Operator

/Y.EMB-AIMP.Seijo.0s.0s.ECP.Cs2NaYCl6-0018a.
L. Seijo, Z. Barandiaran. J. Chem. Phys. 118 (2003) 1921-1928. doi:10.1063/1.1531659
From a SCEI calculation in Cs2NaYCl6 with a=10.5463 A, x=0.2439
     3.0   0
* s-type functions
    0    0
********************************************************************************
* External AIMP:
*
* Local Potential Parameters: (ECP convention)
*                             A(AIMP)=-Zeff*A(ECP)
********************************************************************************
M1
 13
  3.9176000000e5  6.3830000000e4  1.5627000000e4  4.5518000000e3  1.4648000000e3  4.9768000000e2  1.8257000000e2 82.104000000000 29.159000000000 11.058200000000  4.877000000000
  1.386200000000  0.705250000000
  0.099445951370  0.115218037000  0.206010955300  0.358111416700  0.565345695200  0.649561831600  0.994372664200  1.544853093000  1.040450605000  3.278856447000  0.969837401900
  1.633869420000  0.544066480900
M2
  0
COREREP
 1.0
PROJOP
    2
   13    4
  1.2321535940e3  1.7179100120e2 29.764128570000  4.525982819000
      22517.10490000
       3391.91890000
        768.92999000
        207.12231700
        309.54630100
         35.21428790
         14.98494400
         27.52608110
          4.73467785
          2.10940082
          3.44043954
       6786.34226e-4
       2947.80988e-4
  0.016560923437  0.005796371095  0.002409904944 -0.000904642453
  0.116515442356  0.040780741774  0.016955041283 -0.006364670183
  0.428179537853  0.149864076495  0.062307635744 -0.023389359232
  0.553166810346  0.193609983316  0.080495476962 -0.030216804164
 -0.001339410411  0.116123685136  0.057622420701 -0.022448668896
  0.007737820705 -0.670850583082 -0.332886736076  0.129686743927
  0.005134634550 -0.445160557873 -0.220895753655  0.086057051646
  0.036252351081  0.003159495979 -0.276220718068  0.131666114192
 -0.113099630221 -0.009856955930  0.861749931839 -0.410770291687
 -0.052487606791 -0.004574444903  0.399923425803 -0.190631476952
  0.145272459689 -0.003970783140 -0.001298955672 -0.340262161141
  0.006901237993  0.004155296707  0.004609706350  0.940210253785
 -0.001818387624 -0.001710798506  0.001024334847  0.361766305074
   10    3
  1.5656169140e2 23.963504150000  2.785290812000
        981.42971200
        230.97508700
         72.08684850
         24.82378740
         11.44808270
          4.71644961
          2.02374663
          1.10079266
       4804.63613e-4
       1967.85767e-4
 -0.026051334705 -0.012283077140  0.004362480806
 -0.171614838008 -0.080915558354  0.028738122068
 -0.491725829779 -0.231846328297  0.082342978523
 -0.456213770789 -0.215102565841  0.076396232320
 -0.014986846373  0.362451339745 -0.171200115450
 -0.025261595594  0.610942351677 -0.288572256939
 -0.009002461039  0.217721192534 -0.102838337759
  0.019470202514 -0.001897424733  0.448498208082
 -0.011853464568  0.005631938700  0.653125444032
  0.003862637153 -0.001450571284  0.079530042567
    7    1
 13.439777440000
         94.59558890
         26.71735310
          8.93579600
          2.97297813
          1.47868989
       4818.25361e-4
       1425.75771e-4
  0.047833684335
  0.250210248456
  0.528860448217
  0.398521681261
  0.020160216072
  0.025908069593
 -0.006595376626
Spectral Representation Operator
Core primitive basis
Exchange
End of Spectral Representation Operator

/Cl.EMB-AIMP.Seijo.0s.0s.ECP.Cs2NaYCl6-0018a.
L. Seijo, Z. Barandiaran. J. Chem. Phys. 118 (2003) 1921-1928. doi:10.1063/1.1531659
From a SCEI calculation in Cs2NaYCl6 with a=10.5463 A, x=0.2439
    -1.0   0
* s-type functions
    0    0
********************************************************************************
* External AIMP:
*
* Local Potential Parameters: (ECP convention)
*                             A(AIMP)=-Zeff*A(ECP)
********************************************************************************
M1
 13
  3.6510000000e5  5.3630000000e4  1.2063000000e4  3.2760000000e3  1.0364000000e3  3.5920000000e2  1.2440000000e2 46.910000000000 17.980000000000  6.987000000000  1.446000000000
  0.587200000000  0.212400000000
 -0.100341611600 -0.127343271100 -0.229846216400 -0.414755835600 -0.652393192500 -1.138686477000 -1.274086973000 -1.278803603000 -3.418246712000 -2.794845401000 -2.400884467000
 -3.654709722000 -0.515056518300
M2
  0
COREREP
 1.0
PROJOP
    1
    9    3
  2.0831670880e2 20.776715650000  1.915437517000
       1364.96150000
        206.03730000
         44.78080200
         59.37822900
          5.18049520
          2.02243360
          3.42519800
          0.45919951
          0.14963825
 -0.065292362317  0.018781198956 -0.005514158965
 -0.363440060865  0.116627792528 -0.034603893718
 -0.487685395423  0.205844468978 -0.063485100707
 -0.153077581693  0.092395874021 -0.028659954911
 -0.358741700544 -0.653372310858  0.262709684286
 -0.167382113017 -0.405862929170  0.227472520581
  0.432787141203 -0.031598067890  0.096860238316
  0.020921940907 -0.014250598406 -0.766949594543
 -0.006694913412  0.001582945816 -0.431551652103
    6    2
 15.667294190000  0.724496909000
         63.76258100
         14.19345700
          3.79556670
          1.04115910
          0.09954514
          0.35250026
 -0.100435495424  0.025961675347
 -0.457143764806  0.126371970262
 -0.578083730759  0.158777917628
 -0.067852214768 -0.219421503670
  0.000373596197 -0.258694003232
  0.000556446694 -0.686459614962
Spectral Representation Operator
Core primitive basis
Exchange
End of Spectral Representation Operator

********************************************************************************
*           E.1.2.d Cs2NaYCl6 Delta-a/a=-3.1% (a=10.4067 A, x=0.2439)
*             /Cs.EMB-AIMP.Seijo.0s.0s.ECP.Cs2NaYCl6-0031a.
*             /Na.EMB-AIMP.Seijo.7s4p.1s1p.ECP.Cs2NaYCl6-0031a.
*             /Na.EMB-AIMP.Seijo.0s.0s.ECP.Cs2NaYCl6-0031a.
*             /Y.EMB-AIMP.Seijo.0s.0s.ECP.Cs2NaYCl6-0031a.
*             /Cl.EMB-AIMP.Seijo.0s.0s.ECP.Cs2NaYCl6-0031a.
********************************************************************************
*   Cs2NaYCl6 with Delta.a/a0=-3.1% (a=10.4067 A, x=0.2439)
*   P=1 bar a0=10.7396 A, x=0.2439
*   C. Reber, H.U. Gudel, G. Meyer, T. Schleid, C.A. Daul. Inorg. Chem. 28 (1989) 3249-3258. doi:10.1021/ic00315a034
*   Oh5-Fm3m
********************************************************************************

/Cs.EMB-AIMP.Seijo.0s.0s.ECP.Cs2NaYCl6-0031a.
L. Seijo, Z. Barandiaran. J. Chem. Phys. 118 (2003) 1921-1928. doi:10.1063/1.1531659
From a SCEI calculation in Cs2NaYCl6 with a=10.4067 A, x=0.2439
     1.0   0
* s-type functions
    0    0
********************************************************************************
* External AIMP:
*
* Local Potential Parameters: (ECP convention)
*                             A(AIMP)=-Zeff*A(ECP)
********************************************************************************
M1
 15
  4.1220000000e5  6.6070000000e4  1.6111000000e4  4.8290000000e3  1.5932000000e3  4.9900000000e2  2.0290000000e2 59.380000000000 27.750000000000  7.896000000000  4.315000000000
  1.866000000000  0.716600000000  0.390400000000  0.249900000000
  0.496331370000  0.591656562000  1.032486556000  1.673726669000  2.263156386000  3.270377351000  6.074172354000  4.558999495000 11.439713190000  1.735258953000 11.598082870000
  2.751157693000  4.287849843000  2.138116728000  0.088913988370
M2
  0
COREREP
 1.0
PROJOP
    2
   11    5
  2.6635715400e3  4.2580163100e2 92.049986000000 19.039925700000  2.366178955000
      33313.72970000
       3974.35337000
        773.54310200
         68.95959780
         23.82251990
         14.68367750
          7.10033807
          4.19897764
          1.83681080
       3628.48866e-4
       1568.36894e-4
  0.051400731232  0.017713712496  0.007728950342  0.003475158893  0.001224142438
  0.254359876061  0.106434067340  0.050184496802  0.023581409399  0.008561969750
  0.736676609491  0.358208729607  0.168004099684  0.077418281567  0.029207338938
  0.288025409682 -0.825579235015 -0.739489961625 -0.390942720883 -0.144980124112
 -0.658799668731 -0.345777226927 -0.356661923265 -0.274413318564 -0.104534788216
  0.786232365519  0.112218163553  0.926930016382  0.875777668192  0.342234179319
 -0.543594818800 -0.040730461010  0.521270119720  0.686329463273  0.375018316908
  0.304811674843  0.016739812040  0.050760226595 -0.429460146331 -0.301415023992
 -0.067898881494 -0.003297786695  0.008617958744 -1.085791202739 -0.840850133911
  0.013543212453  0.000210733999 -0.000991882440 -0.073917256406  0.908684150860
 -0.006034411061 -0.000159447599  0.000496693802  0.023720667601  0.376638744468
   10    4
  3.8190070700e2 77.532204200000 14.190449200000  1.134207309000
       1835.93935000
        412.74490500
        125.93392200
         18.54755560
          8.38114931
          4.59232246
          2.15034415
       4615.53695e-4
       2062.27972e-4
       9242.51022e-5
  0.056520125787  0.021686907394  0.009272738120  0.002895881082
  0.171899236514  0.111813193543  0.053187300783  0.018932849097
  0.737178558440  0.339659458519  0.151122413823  0.050182505964
  0.444446974330 -0.562858154294 -0.442982860886 -0.152524826361
 -0.460759081787 -0.485193638558 -0.216995649630 -0.108837609352
  0.324536875925 -0.003463784316  0.271144558213  0.197205967828
 -0.106213989013 -0.023768939091  0.842773248291  0.361893968289
  0.032403023471  0.005853287609  0.149950755473 -0.503662875509
 -0.024513628795 -0.004775439839 -0.078570531972 -0.587930647605
  0.008754292582  0.001732365898  0.025020547459 -0.031061445269
    7    2
 56.100838900000  6.874997900000
        214.30000000
         64.91000000
         24.62000000
         10.31500000
          4.14400000
          1.72500000
          0.66840000
  0.056355186022  0.025265276789
  0.259335436101  0.114380453948
  0.487532354190  0.219610460900
  0.361650038141  0.038915689882
  0.064477717325 -0.462584439790
 -0.002844159931 -0.526167082761
  0.000709728006 -0.150030083932
Spectral Representation Operator
Core primitive basis
Exchange
End of Spectral Representation Operator

/Na.EMB-AIMP.Seijo.7s4p.1s1p.ECP.Cs2NaYCl6-0031a.
L. Seijo, Z. Barandiaran. J. Chem. Phys. 118 (2003) 1921-1928. doi:10.1063/1.1531659
From a SCEI calculation in Cs2NaYCl6 with a=10.4067 A, x=0.2439
********************************************************************************
* with orthogonality functions
********************************************************************************
     1.0   1
* s-type functions
    7    1
       1562.63160000
        235.88220000
         53.17220000
         14.15975900
         21.42552200
          1.93426680
          0.62799346
 -0.004633276197
 -0.034650655842
 -0.126705416281
 -0.151596096952
 -0.073135885982
  0.597854365176
  0.514615648050
* p-type functions
    4    1
         38.80258600
          8.67551940
          2.41015550
          0.65992043
 -0.042769211094
 -0.230460713796
 -0.510540342517
 -0.448807290269
********************************************************************************
* External AIMP:
*
* Local Potential Parameters: (ECP convention)
*                             A(AIMP)=-Zeff*A(ECP)
********************************************************************************
M1
 11
  2.5750000000e5  2.9190000000e4  5.4660000000e3  1.3399000000e3  4.0270000000e2  1.4030000000e2 50.700000000000 14.950000000000  4.839000000000  2.472000000000  1.049300000000
  0.068862414490  0.108278208300  0.201913907800  0.380987353900  0.584206555900  0.977387840600  0.998534423900  1.550980241000  2.516224762000  1.869451403000  0.743172888500
M2
  0
COREREP
 1.0
PROJOP
    1
    7    2
 80.528315080000  5.272843730000
       1562.63160000
        235.88220000
         53.17220000
         14.15975900
         21.42552200
          1.93426680
          0.62799346
  0.019020752854 -0.004633276197
  0.133425666113 -0.034650655842
  0.445452427579 -0.126705416281
  0.470473776991 -0.151596096952
  0.051254893618 -0.073135885982
  0.045590315381  0.597854365176
 -0.013870008042  0.514615648050
    4    1
  2.714431676000
         38.80258600
          8.67551940
          2.41015550
          0.65992043
 -0.042769211094
 -0.230460713796
 -0.510540342517
 -0.448807290269
Spectral Representation Operator
Core primitive basis
Exchange
End of Spectral Representation Operator

/Na.EMB-AIMP.Seijo.0s.0s.ECP.Cs2NaYCl6-0031a.
L. Seijo, Z. Barandiaran. J. Chem. Phys. 118 (2003) 1921-1928. doi:10.1063/1.1531659
From a SCEI calculation in Cs2NaYCl6 with a=10.4067 A, x=0.2439
     1.0   0
* s-type functions
    0    0
********************************************************************************
* External AIMP:
*
* Local Potential Parameters: (ECP convention)
*                             A(AIMP)=-Zeff*A(ECP)
********************************************************************************
M1
 11
  2.5750000000e5  2.9190000000e4  5.4660000000e3  1.3399000000e3  4.0270000000e2  1.4030000000e2 50.700000000000 14.950000000000  4.839000000000  2.472000000000  1.049300000000
  0.068862414490  0.108278208300  0.201913907800  0.380987353900  0.584206555900  0.977387840600  0.998534423900  1.550980241000  2.516224762000  1.869451403000  0.743172888500
M2
  0
COREREP
 1.0
PROJOP
    1
    7    2
 80.528315080000  5.272843730000
       1562.63160000
        235.88220000
         53.17220000
         14.15975900
         21.42552200
          1.93426680
          0.62799346
  0.019020752854 -0.004633276197
  0.133425666113 -0.034650655842
  0.445452427579 -0.126705416281
  0.470473776991 -0.151596096952
  0.051254893618 -0.073135885982
  0.045590315381  0.597854365176
 -0.013870008042  0.514615648050
    4    1
  2.714431676000
         38.80258600
          8.67551940
          2.41015550
          0.65992043
 -0.042769211094
 -0.230460713796
 -0.510540342517
 -0.448807290269
Spectral Representation Operator
Core primitive basis
Exchange
End of Spectral Representation Operator

/Y.EMB-AIMP.Seijo.0s.0s.ECP.Cs2NaYCl6-0031a.
L. Seijo, Z. Barandiaran. J. Chem. Phys. 118 (2003) 1921-1928. doi:10.1063/1.1531659
From a SCEI calculation in Cs2NaYCl6 with a=10.4067 A, x=0.2439
     3.0   0
* s-type functions
    0    0
********************************************************************************
* External AIMP:
*
* Local Potential Parameters: (ECP convention)
*                             A(AIMP)=-Zeff*A(ECP)
********************************************************************************
M1
 13
  3.9176000000e5  6.3830000000e4  1.5627000000e4  4.5518000000e3  1.4648000000e3  4.9768000000e2  1.8257000000e2 82.104000000000 29.159000000000 11.058200000000  4.877000000000
  1.386200000000  0.705250000000
  0.099444944050  0.115226144400  0.205997235900  0.358147006500  0.565291455800  0.649681703500  0.994166447300  1.545179420000  1.040048274000  3.279757426000  0.968537741200
  1.637420511000  0.541101691000
M2
  0
COREREP
 1.0
PROJOP
    2
   13    4
  1.2321284240e3  1.7176603800e2 29.739415620000  4.500645396000
      22517.10490000
       3391.91890000
        768.92999000
        207.12231700
        309.54630100
         35.21428790
         14.98494400
         27.52608110
          4.73467785
          2.10940082
          3.44043954
       6786.34226e-4
       2947.80988e-4
  0.016560923326  0.005796371030 -0.002409909432 -0.000905210241
  0.116515441577  0.040780741315 -0.016955072859 -0.006368664889
  0.428179534991  0.149864074807 -0.062307751780 -0.023404039274
  0.553166806648  0.193609981136 -0.080495626869 -0.030235769367
 -0.001339412820  0.116123758852 -0.057620660439 -0.022475198969
  0.007737834621 -0.670851008942  0.332876566981  0.129840009089
  0.005134643785 -0.445160840464  0.220889005685  0.086158754778
  0.036252355207  0.003159958609  0.276230970305  0.131691231428
 -0.113099643093 -0.009858399237 -0.861781916641 -0.410848652123
 -0.052487612765 -0.004575114717 -0.399938269404 -0.190667842692
  0.145272443828 -0.003967495351  0.001376928007 -0.341125471977
  0.006901337282  0.004150658669 -0.004729275632  0.943046441593
 -0.001818483408 -0.001706024281 -0.000904470063  0.359337635978
   10    3
  1.5653666770e2 23.938742860000  2.761735140000
        981.42971200
        230.97508700
         72.08684850
         24.82378740
         11.44808270
          4.71644961
          2.02374663
          1.10079266
       4804.63613e-4
       1967.85767e-4
  0.026051331489  0.012283027248  0.004362560866
  0.171614816817  0.080915229688  0.028738649467
  0.491725769062  0.231845386575  0.082344489673
  0.456213714456  0.215101692130  0.076397634337
  0.014986958632 -0.362449224269 -0.171190805221
  0.025261784816 -0.610938785864 -0.288556563760
  0.009002528472 -0.217719921787 -0.102832745189
 -0.019470641814  0.001896180209  0.447676781901
  0.011853964686 -0.005663943538  0.655535399108
 -0.003862955384  0.001488258884  0.077265798972
    7    1
 13.414987890000
         94.59558890
         26.71735310
          8.93579600
          2.97297813
          1.47868989
       4818.25361e-4
       1425.75771e-4
  0.047832977985
  0.250206553657
  0.528853898673
  0.398518302118
  0.020178289943
  0.025920029887
 -0.006600554804
Spectral Representation Operator
Core primitive basis
Exchange
End of Spectral Representation Operator

/Cl.EMB-AIMP.Seijo.0s.0s.ECP.Cs2NaYCl6-0031a.
L. Seijo, Z. Barandiaran. J. Chem. Phys. 118 (2003) 1921-1928. doi:10.1063/1.1531659
From a SCEI calculation in Cs2NaYCl6 with a=10.4067 A, x=0.2439
    -1.0   0
* s-type functions
    0    0
[...]
  2.338464283000  0.903023120900
M2
  0
COREREP
 1.0
PROJOP
    3
   27    5
  4.6692146820e3  8.0483023210e2  1.8635695000e2 38.924846560000  4.977518612000
67013119000.00000000
 7216717800.00000000
 1171529200.00000000
  235233120.00000000
   55877724.00000000
   14949778.00000000
    4363017.00000000
    1375340.50000000
     456540.52000000
     160435.37000000
      59637.10400000
      23233.14400000
       9474.04090000
       4032.73130000
       1779.75390000
        807.87768000
        374.92607000
        172.16227000
         81.75905400
         34.04620200
         17.67359800
          7.08409260
          3.47950730
          0.99316525
          0.44583214
        772.13035e-4
        305.33522e-4
 -0.000000244159 -0.000000081509 -0.000000051623  0.000000015328 -0.000000006643
  0.000001120858  0.000000374559  0.000000236647 -0.000000070584  0.000000030560
 -0.000004011432 -0.000001348944 -0.000000839505  0.000000257494 -0.000000110723
  0.000016057859  0.000005559798  0.000003220044 -0.000001123084  0.000000468574
 -0.000595541280 -0.000221485214 -0.000106087664  0.000050450057 -0.000019778835
 -0.000742824110 -0.000280859363 -0.000128808244  0.000065474618 -0.000025371335
 -0.001956849062 -0.000727632361 -0.000351835787  0.000165074089 -0.000064910893
 -0.003949491924 -0.001497905730 -0.000690998523  0.000348563302 -0.000135141193
 -0.008181500879 -0.003073807874 -0.001481830004  0.000700439749 -0.000275554579
 -0.016327091800 -0.006257096969 -0.002933280116  0.001449215584 -0.000561566019
 -0.032284660281 -0.012495628141 -0.005959476475  0.002885521601 -0.001126712883
 -0.063239750961 -0.025221363519 -0.011988781226  0.005864796872 -0.002284886283
 -0.120490529981 -0.050090621132 -0.024128863772  0.011760088953 -0.004583812827
 -0.213403003960 -0.096618158967 -0.046861710506  0.023033796455 -0.008993411799
 -0.315171280866 -0.163496009471 -0.082167505776  0.040358992985 -0.015750391321
 -0.302931793739 -0.195815529020 -0.100636943132  0.050566208411 -0.019844589335
 -0.121186106741  0.010629782631  0.012944295598 -0.008839851112  0.003690999938
 -0.007602093799  0.503632354711  0.431203291161 -0.238273417580  0.095474972840
 -0.000655846211  0.534061668783  0.582641881182 -0.363866720764  0.150260178278
  0.000523977180  0.095857165585 -0.464940694017  0.457441114708 -0.208804227445
 -0.000298542739 -0.014771628432 -0.818860425649  0.986636858797 -0.475234024098
  0.000144190179  0.005047931946 -0.115530875697 -0.614307825665  0.432037865745
 -0.000076425681 -0.002356372609  0.014455582308 -0.857244718214  0.774863926642
  0.000025280027  0.000735595602 -0.003857486733 -0.057488789346 -0.702138912326
 -0.000011435565 -0.000345101359  0.001798137927  0.013030635544 -0.654737938184
  0.000002918352  0.000086932238 -0.000425524830 -0.002446781531 -0.001677716010
 -0.000001437668 -0.000040155604  0.000195421661  0.001137642814  0.006221461124
   23    4
  7.1022645830e2  1.5724203490e2 29.141607190000  2.438251283000
   55602773.00000000
    7765745.90000000
    1589584.30000000
     401810.95000000
     118603.34000000
      39300.00000000
      14430.35400000
       5793.12460000
       2497.82150000
       1143.71730000
        551.39771000
        277.75014000
        145.03033000
         77.44745600
         41.75015500
         23.22694800
         12.93638700
          7.02606490
          3.74450470
          1.89919080
          0.91463474
          0.42267369
          0.17333636
 -0.000001787486 -0.000000941646  0.000000369672 -0.000000210150
 -0.000029778280 -0.000014803249  0.000007475619 -0.000002208202
 -0.000077473699 -0.000039657036  0.000017830828 -0.000007396355
 -0.000219006617 -0.000109128715  0.000055186460 -0.000016207648
 -0.000590314267 -0.000299796764  0.000141846518 -0.000052241141
 -0.001617918222 -0.000820946851  0.000396168005 -0.000137351228
 -0.004448877155 -0.002272304678  0.001092131489 -0.000385269720
 -0.012330231737 -0.006350263769  0.003064248923 -0.001074529197
 -0.033632795525 -0.017577836747  0.008499387264 -0.002995034682
 -0.085361657886 -0.045767211583  0.022289930714 -0.007832556343
 -0.184634876507 -0.103020111933  0.050574435822 -0.017889581126
 -0.306178391533 -0.179922340179  0.089736864417 -0.031622486183
 -0.333940588211 -0.192210170144  0.094507563214 -0.033672054157
 -0.191850066297  0.015580229083 -0.030487879070  0.013330212072
 -0.041369772500  0.389529614604 -0.292135859397  0.110413710785
 -0.001846259048  0.478691783456 -0.385623015456  0.153259488489
 -0.000145658887  0.202678825262  0.045198479659 -0.048910827343
  0.000133670639  0.026107516819  0.546128108166 -0.272994397581
  0.000015743341  0.001459784377  0.482015652466 -0.306023579442
  0.000006046762  0.000165320500  0.118269776408  0.132485407728
 -0.000001385223 -0.000003884438  0.003808978862  0.520819599460
  0.000000056778  0.000004542709  0.001381982045  0.515003612411
  0.000000067483 -0.000004598591 -0.000441904127  0.024900635706
   15    2
  1.2106335890e2 15.905130110000
      16241.49300000
       4278.98820000
       1524.59710000
        640.85771000
        295.56552000
        143.52658000
         71.89617500
         36.65707500
         18.88423700
          9.51045680
          4.62082260
          2.11200860
          0.75168436
          0.25140270
        754.71915e-4
  0.000085227909  0.000041409851
  0.000604051322  0.000295456839
  0.003323691269  0.001623951094
  0.014681190082  0.007257030921
  0.052573806428  0.026160221344
  0.148496094682  0.075637977863
  0.301129884361  0.152370923991
  0.388472781929  0.180766956063
  0.249911825017 -0.020930154044
  0.059008204721 -0.385959251374
  0.003152945015 -0.487169720921
  0.000572999879 -0.223602676495
 -0.000003429486 -0.021284940573
  0.000021597308  0.001549969992
 -0.000006333266 -0.000322920186
   10    1
  1.247433889000
       1573.11130000
        295.92915000
        108.34588000
         47.08844000
         21.82595400
         10.48002400
          4.98865320
          2.30476150
          0.99952257
          0.38102157
 -0.000091148588
 -0.002175038166
 -0.015333911670
 -0.061822277883
 -0.166136937609
 -0.288169400187
 -0.342977516076
 -0.296630046907
 -0.187499722509
 -0.063146590208
Spectral Representation Operator
Core primitive basis
Exchange
End of Spectral Representation Operator

/Ca.EMB-AIMP.Seijo.0s.0s.ECP.Lu2CaMg2Si3O12-Ca.
L. Seijo, Z. Barandiaran. Phys. Chem. Chem. Phys. 15 (2013) 19221-19231. doi:10.1039/c3cp53465k
Embedding AIMP of Ca(2+) in Lu2CaMg2Si3O12
     2.0   0
* s-type functions
    0    0
********************************************************************************
* External AIMP:
*
* Local Potential Parameters: (ECP convention)
*                             A(AIMP)=-Zeff*A(ECP)
********************************************************************************
M1
 14
  3.8536000000e5  6.0875000000e4  1.4577000000e4  4.1262000000e3  1.3237000000e3  4.6993000000e2  1.7681000000e2 62.805000000000 25.665000000000 12.144300000000  3.192200000000
  1.623200000000  0.831060000000  0.415590000000
  0.060366144020  0.071118255120  0.127588563900  0.220889181200  0.369565656600  0.556514956100  0.636728445100  0.805606176200  1.558980577000  1.289929220000  0.737092822900
  1.684558975000  0.857297235800  0.023763790940
M2
  0
COREREP
 1.0
PROJOP
    1
   20    3
  2.9939319960e2 33.092302160000  3.668938502000
   15429060.00000000
    1717766.00000000
     325290.80000000
      83104.29000000
      25219.11000000
       8662.80000000
       3220.96700000
       1283.73800000
        543.45920000
        240.83900000
        109.96770000
         51.34453000
         24.28419000
         10.50093000
          4.92292300
          2.34060700
          0.92145250
          0.38267100
          0.06533290
          0.02618455
 -0.000027810228 -0.000008190314 -0.000002790681
 -0.000115765890 -0.000033740721 -0.000011837539
 -0.000336266225 -0.000098687196 -0.000033811108
 -0.000900926729 -0.000264431028 -0.000091367457
 -0.002361578750 -0.000694275812 -0.000238737155
 -0.006274387766 -0.001856486135 -0.000642510173
 -0.017042367689 -0.005074944729 -0.001743937242
 -0.044365313550 -0.013531617354 -0.004709350855
 -0.105346257694 -0.033386185773 -0.011516178822
 -0.214806076244 -0.075062782228 -0.026598418082
 -0.335646271003 -0.140370392096 -0.049664803560
 -0.309852061335 -0.186534663713 -0.071282253651
 -0.112210857533 -0.043753765309 -0.013819298224
 -0.007663824043  0.400543929055  0.181072652916
 -0.000346987856  0.569326524216  0.443717187365
  0.000032639831  0.176392801694  0.095748652780
  0.000045648249  0.007695973236 -0.686179145098
  0.000012224377  0.000762034802 -0.550886722816
  0.000001748983 -0.000213099335  0.006561117515
 -0.000000926338  0.000086381428  0.002984246748
   15    2
 26.445817760000  1.830795467000
      51912.48000000
       8887.83300000
       2423.37000000
        833.83440000
        329.65730000
        142.47560000
         65.46554000
         31.43317000
         15.49410000
          7.76511500
          3.92498500
          1.92437000
          0.91383950
          0.42021050
          0.17575970
 -0.000014571818 -0.000004790484
 -0.000084904236 -0.000027608855
 -0.000435558464 -0.000144395864
 -0.001990533270 -0.000646807856
 -0.007868198750 -0.002629207087
 -0.026523237850 -0.008736623481
 -0.075267809791 -0.025927244090
 -0.171409807217 -0.059185353936
 -0.294470145975 -0.109085419006
 -0.349431701704 -0.130668170764
 -0.222260850784 -0.066022912301
 -0.049866477396  0.234791861824
 -0.001369657431  0.435360136832
 -0.000717074007  0.440399185713
  0.000247618835  0.038902349857
Spectral Representation Operator
Core primitive basis
Exchange
End of Spectral Representation Operator

/Mg.EMB-AIMP.Seijo.0s.0s.ECP.Lu2CaMg2Si3O12-Mg(oct).
L. Seijo, Z. Barandiaran. Phys. Chem. Chem. Phys. 15 (2013) 19221-19231. doi:10.1039/c3cp53465k
Embedding AIMP of Mg(2+) in Lu2CaMg2Si3O12
     2.0   0
* s-type functions
    0    0
********************************************************************************
* External AIMP:
*
* Local Potential Parameters: (ECP convention)
*                             A(AIMP)=-Zeff*A(ECP)
********************************************************************************
M1
 13
  4.1803000000e5  7.0189000000e4  1.7181000000e4  4.8644000000e3  1.5617000000e3  5.5138000000e2  2.1099000000e2 85.739000000000 34.077000000000 12.899200000000  5.719000000000
  2.683900000000  1.266210000000
  0.027711062310  0.031157554200  0.056409049350  0.096165217950  0.158993629700  0.259589601600  0.393521547200  0.473585630700  0.441555049600  0.739920004600  1.211510227000
  0.913827372000  0.196054053500
M2
  0
COREREP
 1.0
PROJOP
    1
   16    2
 97.715081490000  7.143391380000
    1694068.00000000
     192336.90000000
      39966.58000000
      10658.15000000
       3203.17800000
       1064.46700000
        385.24090000
        149.66940000
         61.39625000
         26.30771000
         11.48114000
          4.16401400
          1.75389900
          0.71374240
          0.11313050
          0.04072101
 -0.000005879461 -0.000001747277
 -0.000046872770 -0.000011680216
 -0.000268489338 -0.000067861006
 -0.001242164673 -0.000314472796
 -0.005072282441 -0.001284676918
 -0.018035643854 -0.004624003562
 -0.055781685919 -0.014573596633
 -0.145276773091 -0.040297768737
 -0.294450977924 -0.091703375411
 -0.384516105786 -0.160703713241
 -0.224543842828 -0.134155170202
 -0.025483236550  0.218817357140
  0.002195369406  0.575779906994
 -0.001198797603  0.361172833505
  0.000227156144  0.004283952580
 -0.000072725257 -0.006607571528
   11    1
  4.189936084000
       1213.44400000
        274.66330000
         87.11188000
         32.75345000
         13.63020000
          6.03971800
          2.74552300
          1.23835000
          0.90131990
          0.58515990
          0.23001770
 -0.000211716443
 -0.001987694805
 -0.010715240761
 -0.041289246334
 -0.116436366863
 -0.240433052459
 -0.332181228940
 -0.395143622690
  0.121423900524
 -0.220536508204
  0.004566724348
Spectral Representation Operator
Core primitive basis
Exchange
End of Spectral Representation Operator

/Si.EMB-AIMP.Seijo.0s.0s.ECP.Lu2CaMg2Si3O12-Si(tet).
L. Seijo, Z. Barandiaran. Phys. Chem. Chem. Phys. 15 (2013) 19221-19231. doi:10.1039/c3cp53465k
Embedding AIMP of Si(4+) in Lu2CaMg2Si3O12
     4.0   0
* s-type functions
    0    0
********************************************************************************
* External AIMP:
*
* Local Potential Parameters: (ECP convention)
*                             A(AIMP)=-Zeff*A(ECP)
********************************************************************************
M1
 12
  3.9056417000e5  6.2340175500e4  1.4730208000e4  4.1188075900e3  1.3152869300e3  4.6207881500e2  1.7572399700e2 68.675038300000 24.319563800000 10.005462000000  4.599620000000
  2.187540000000
  0.017474065070  0.020520373880  0.037461746850  0.063777086550  0.107125972000  0.174625527900  0.244089749500  0.247551184500  0.331158484900  0.634074746800  0.522639183600
  0.099501878380
M2
  0
COREREP
 1.0
PROJOP
    1
   16    2
  1.3819698340e2 12.703699630000
    1453205.00000000
     183024.60000000
      37505.20000000
       9899.25100000
       3067.37900000
       1068.80400000
        406.15850000
        164.87680000
         70.46529000
         31.35984000
         14.24023000
          5.51683100
          2.45715100
          1.09992100
          0.25729500
          0.09153216
 -0.000039098715  0.000010879078
 -0.000053217668  0.000013903151
 -0.000449393693  0.000119903947
 -0.001979086438  0.000529379988
 -0.007581604036  0.002030072363
 -0.024909019219  0.006781159844
 -0.071383568660  0.019898366296
 -0.171131320259  0.051402744713
 -0.314720929460  0.108267659072
 -0.361785820139  0.173329820568
 -0.180704688567  0.110265205168
 -0.018630630067 -0.266278957451
  0.001287801612 -0.574895392537
 -0.000885725275 -0.313725866730
  0.000139102655 -0.011616674539
  0.000035568535  0.011747699925
   11    1
  8.942122035000
       1761.45000000
        352.27440000
        103.83810000
         36.92634000
         14.69441000
          6.22933500
          2.70582200
          1.17691200
          0.41866660
          0.16047890
          0.05929782
 -0.000231242356
 -0.002624934243
 -0.015858912475
 -0.064156064679
 -0.180482618624
 -0.332882044826
 -0.391949095738
 -0.213074738142
 -0.022464399700
  0.008911538263
 -0.000203472514
Spectral Representation Operator
Core primitive basis
Exchange
End of Spectral Representation Operator

/Si.EMB-AIMP.Seijo.16s11p.1s1p.ECP.Lu2CaMg2Si3O12-Si(tet).
L. Seijo, Z. Barandiaran. Phys. Chem. Chem. Phys. 15 (2013) 19221-19231. doi:10.1039/c3cp53465k
Embedding AIMP of Si(4+) in Lu2CaMg2Si3O12 with orthogonality orbitals
     4.0   1
* s-type functions
   16    1
    1453205.00000000
     183024.60000000
      37505.20000000
       9899.25100000
       3067.37900000
       1068.80400000
        406.15850000
        164.87680000
         70.46529000
         31.35984000
         14.24023000
          5.51683100
          2.45715100
          1.09992100
          0.25729500
          0.09153216
  0.000010879078
  0.000013903151
  0.000119903947
  0.000529379988
  0.002030072363
  0.006781159844
  0.019898366296
  0.051402744713
  0.108267659072
  0.173329820568
  0.110265205168
 -0.266278957451
 -0.574895392537
 -0.313725866730
 -0.011616674539
  0.011747699925
* p-type functions
   11    1
       1761.45000000
        352.27440000
        103.83810000
         36.92634000
         14.69441000
          6.22933500
          2.70582200
          1.17691200
          0.41866660
          0.16047890
          0.05929782
 -0.000231242356
 -0.002624934243
 -0.015858912475
 -0.064156064679
 -0.180482618624
 -0.332882044826
 -0.391949095738
 -0.213074738142
 -0.022464399700
  0.008911538263
 -0.000203472514
********************************************************************************
* External AIMP:
*
* Local Potential Parameters: (ECP convention)
*                             A(AIMP)=-Zeff*A(ECP)
********************************************************************************
M1
 12
  3.9056417000e5  6.2340175500e4  1.4730208000e4  4.1188075900e3  1.3152869300e3  4.6207881500e2  1.7572399700e2 68.675038300000 24.319563800000 10.005462000000  4.599620000000
  2.187540000000
  0.017474065070  0.020520373880  0.037461746850  0.063777086550  0.107125972000  0.174625527900  0.244089749500  0.247551184500  0.331158484900  0.634074746800  0.522639183600
  0.099501878380
M2
  0
COREREP
 1.0
PROJOP
    1
   16    2
  1.3819698340e2 12.703699630000
    1453205.00000000
     183024.60000000
      37505.20000000
       9899.25100000
       3067.37900000
       1068.80400000
        406.15850000
        164.87680000
         70.46529000
         31.35984000
         14.24023000
          5.51683100
          2.45715100
          1.09992100
          0.25729500
          0.09153216
 -0.000039098715  0.000010879078
 -0.000053217668  0.000013903151
 -0.000449393693  0.000119903947
 -0.001979086438  0.000529379988
 -0.007581604036  0.002030072363
 -0.024909019219  0.006781159844
 -0.071383568660  0.019898366296
 -0.171131320259  0.051402744713
 -0.314720929460  0.108267659072
 -0.361785820139  0.173329820568
 -0.180704688567  0.110265205168
 -0.018630630067 -0.266278957451
  0.001287801612 -0.574895392537
 -0.000885725275 -0.313725866730
  0.000139102655 -0.011616674539
  0.000035568535  0.011747699925
   11    1
  8.942122035000
       1761.45000000
        352.27440000
        103.83810000
         36.92634000
         14.69441000
          6.22933500
          2.70582200
          1.17691200
          0.41866660
          0.16047890
          0.05929782
 -0.000231242356
 -0.002624934243
 -0.015858912475
 -0.064156064679
 -0.180482618624
 -0.332882044826
 -0.391949095738
 -0.213074738142
 -0.022464399700
  0.008911538263
 -0.000203472514
Spectral Representation Operator
Core primitive basis
Exchange
End of Spectral Representation Operator

/O.EMB-AIMP.Seijo.0s.0s.ECP.Lu2CaMg2Si3O12-O.
L. Seijo, Z. Barandiaran. Phys. Chem. Chem. Phys. 15 (2013) 19221-19231. doi:10.1039/c3cp53465k
Embedding AIMP of O(2-)  in Lu2CaMg2Si3O12
    -2.0   0
* s-type functions
    0    0
********************************************************************************
* External AIMP:
*
* Local Potential Parameters: (ECP convention)
*                             A(AIMP)=-Zeff*A(ECP)
********************************************************************************
M1
 12
  2.8288583000e5  3.4740012000e4  6.5025730000e3  1.4864260000e3  4.0682733000e2  1.2483700000e2 41.984619000000 13.816330000000  4.272136000000  1.610321600000  0.607890000000
  0.264472000000
 -0.021742301240 -0.031887611670 -0.065298575440 -0.121974231700 -0.218481138300 -0.384308831400 -0.510314198400 -0.460376761600 -0.757881007900 -1.311165150000 -1.050535288000
 -0.066034905170
M2
  0
COREREP
 1.0
PROJOP
    1
    8    2
 40.307380600000  2.011436063000
       2048.05000000
        309.09900000
         70.41410000
         19.70120000
          6.03145000
         10.22970000
          0.93409000
          0.28625000
  0.006201811976  0.001316692821
  0.045637958342  0.009609917403
  0.200045758796  0.046601297026
  0.473802571640  0.115809102354
  0.380812473230  0.102541784341
  0.028913728696  0.065279029306
  0.024673642722 -0.465893791739
 -0.005608681773 -0.639400936339
    6    1
  0.498132958300
         34.97120000
          7.84509000
          2.30332000
          0.72198000
          0.21553000
          0.05900000
  0.013152275326
  0.085614659783
  0.248343136667
  0.442040589255
  0.500944742537
 -0.083250416464
Spectral Representation Operator
Core primitive basis
Exchange
End of Spectral Representation Operator
