************************************************************************
* This file is part of OpenMolcas.                                     *
*                                                                      *
* OpenMolcas is free software; you can redistribute it and/or modify   *
* it under the terms of the GNU Lesser General Public License, v. 2.1. *
* OpenMolcas is distributed in the hope that it will be useful, but it *
* is provided "as is" and without any express or implied warranties.   *
* For more details see the full text of the license in the file        *
* LICENSE or in <http://www.gnu.org/licenses/>.                        *
************************************************************************

#Hamiltonian NRH
#Nucleus UNK
#Contraction SEG
#AllElectron AE_

************************************************************************
* This file has been generated from Basis Set Exchange data:           *
*   https://www.basissetexchange.org                                   *
* Version: 1  (Data from CFour)                                        *
************************************************************************

/H.JGauss-DZP.Gauss.4s1p.2s1p.
J. Gauss. J. Chem. Phys. 99 (1993) 3629-3643. doi:10.1063/1.466161
HYDROGEN (4s,1p) -> [2s,1p]
     1.0   1
* s-type functions
    4    2
         13.01070100
          1.96225720
          0.44453800
          0.12194960
   0.01968220   0.00000000
   0.13796520   0.00000000
   0.47831930   0.00000000
   0.00000000   1.00000000
* p-type functions
    1    1
          0.80000000
   1.00000000

/He.JGauss-DZP.Gauss.4s1p.2s1p.
J. Gauss. J. Chem. Phys. 99 (1993) 3629-3643. doi:10.1063/1.466161
HELIUM (4s,1p) -> [2s,1p]
     2.0   1
* s-type functions
    4    2
         38.35493670
          5.76890810
          1.23994070
          0.29757820
   0.02381430   0.00000000
   0.15490910   0.00000000
   0.46998100   0.00000000
   0.00000000   1.00000000
* p-type functions
    1    1
          1.00000000
   1.00000000

/Li.JGauss-DZP.Gauss.8s1p.4s1p.
J. Gauss. J. Chem. Phys. 99 (1993) 3629-3643. doi:10.1063/1.466161
LITHIUM (8s,1p) -> [4s,1p]
     3.0   1
* s-type functions
    8    4
       1484.27860000
        222.69992000
         50.68454600
         14.31666600
          4.59432600
          1.58299110
          0.56225890
          0.04787110
   0.00076250   0.00000000   0.00000000   0.00000000
   0.00587250   0.00000000   0.00000000   0.00000000
   0.02968580   0.00000000   0.00000000   0.00000000
   0.10983720   0.00000000   0.00000000   0.00000000
   0.28534700   0.00000000   0.00000000   0.00000000
   0.00000000   1.00000000   0.00000000   0.00000000
   0.00000000   0.00000000   1.00000000   0.00000000
   0.00000000   0.00000000   0.00000000   1.00000000
* p-type functions
    1    1
          0.17000000
   1.00000000

/B.JGauss-DZP.Gauss.8s4p1d.4s2p1d.
J. Gauss. J. Chem. Phys. 99 (1993) 3629-3643. doi:10.1063/1.466161
BORON (8s,4p,1d) -> [4s,2p,1d]
     5.0   2
* s-type functions
    8    4
       2410.20610000
        361.86992000
         82.30859300
         23.10994200
          7.25172590
          2.36664690
          0.35987080
          0.11162890
   0.00175500   0.00000000   0.00000000   0.00000000
   0.01343640   0.00000000   0.00000000   0.00000000
   0.06636900   0.00000000   0.00000000   0.00000000
   0.23025300   0.00000000   0.00000000   0.00000000
   0.51498210   0.00000000   0.00000000   0.00000000
   0.00000000   1.00000000   0.00000000   0.00000000
   0.00000000   0.00000000   1.00000000   0.00000000
   0.00000000   0.00000000   0.00000000   1.00000000
* p-type functions
    4    2
          6.00170730
          1.24010970
          0.33668020
          0.09559090
  -0.03554530   0.00000000
  -0.19834500   0.00000000
  -0.50478730   0.00000000
   0.00000000   1.00000000
* d-type functions
    1    1
          0.50000000
   1.00000000

/C.JGauss-DZP.Gauss.8s4p1d.4s2p1d.
J. Gauss. J. Chem. Phys. 99 (1993) 3629-3643. doi:10.1063/1.466161
CARBON (8s,4p,1d) -> [4s,2p,1d]
     6.0   2
* s-type functions
    8    4
       3623.86130000
        544.04621000
        123.74338000
         34.76320900
         10.93333300
          3.57447650
          0.57483250
          0.17303640
   0.00163390   0.00000000   0.00000000   0.00000000
   0.01252170   0.00000000   0.00000000   0.00000000
   0.06211390   0.00000000   0.00000000   0.00000000
   0.21817730   0.00000000   0.00000000   0.00000000
   0.49800430   0.00000000   0.00000000   0.00000000
   0.00000000   1.00000000   0.00000000   0.00000000
   0.00000000   0.00000000   1.00000000   0.00000000
   0.00000000   0.00000000   0.00000000   1.00000000
* p-type functions
    4    2
          9.44328190
          2.00179860
          0.54629720
          0.15202680
   0.03789550   0.00000000
   0.20818180   0.00000000
   0.50474170   0.00000000
   0.00000000   1.00000000
* d-type functions
    1    1
          0.80000000
   1.00000000

/N.JGauss-DZP.Gauss.8s4p1d.4s2p1d.
J. Gauss. J. Chem. Phys. 99 (1993) 3629-3643. doi:10.1063/1.466161
NITROGEN (8s,4p,1d) -> [4s,2p,1d]
     7.0   2
* s-type functions
    8    4
       5071.98920000
        761.41791000
        173.18418000
         48.67039000
         15.33144800
          5.01867100
          0.83554770
          0.24626810
   0.00170670   0.00000000   0.00000000   0.00000000
   0.01308770   0.00000000   0.00000000   0.00000000
   0.06509830   0.00000000   0.00000000   0.00000000
   0.23051600   0.00000000   0.00000000   0.00000000
   0.53300470   0.00000000   0.00000000   0.00000000
   0.00000000   1.00000000   0.00000000   0.00000000
   0.00000000   0.00000000   1.00000000   0.00000000
   0.00000000   0.00000000   0.00000000   1.00000000
* p-type functions
    4    2
         13.55072200
          2.91786820
          0.79831250
          0.21900130
   0.04063080   0.00000000
   0.22085800   0.00000000
   0.51860140   0.00000000
   0.00000000   1.00000000
* d-type functions
    1    1
          1.00000000
   1.00000000

/O.JGauss-DZP.Gauss.8s4p1d.4s2p1d.
J. Gauss. J. Chem. Phys. 99 (1993) 3629-3643. doi:10.1063/1.466161
OXYGEN (8s,4p,1d) -> [4s,2p,1d]
     8.0   2
* s-type functions
    8    4
       6773.37470000
       1016.79700000
        231.26738000
         65.00845400
         20.49980800
          6.71606640
          1.14715720
          0.33423250
   0.00172660   0.00000000   0.00000000   0.00000000
   0.01324650   0.00000000   0.00000000   0.00000000
   0.06602620   0.00000000   0.00000000   0.00000000
   0.23528360   0.00000000   0.00000000   0.00000000
   0.54976240   0.00000000   0.00000000   0.00000000
   0.00000000   1.00000000   0.00000000   0.00000000
   0.00000000   0.00000000   1.00000000   0.00000000
   0.00000000   0.00000000   0.00000000   1.00000000
* p-type functions
    4    2
         17.69426400
          3.85360270
          1.04674650
          0.27586040
   0.04359020   0.00000000
   0.23178090   0.00000000
   0.51455970   0.00000000
   0.00000000   1.00000000
* d-type functions
    1    1
          1.20000000
   1.00000000

/F.JGauss-DZP.Gauss.8s4p1d.4s2p1d.
J. Gauss. J. Chem. Phys. 99 (1993) 3629-3643. doi:10.1063/1.466161
FLUORINE (8s,4p,1d) -> [4s,2p,1d]
     9.0   2
* s-type functions
    8    4
       8709.54620000
       1307.41340000
        297.36441000
         83.60215400
         26.38512100
          8.64991740
          1.50432910
          0.43408400
   0.00139360   0.00000000   0.00000000   0.00000000
   0.01069510   0.00000000   0.00000000   0.00000000
   0.05338930   0.00000000   0.00000000   0.00000000
   0.19112480   0.00000000   0.00000000   0.00000000
   0.44987540   0.00000000   0.00000000   0.00000000
   0.00000000   1.00000000   0.00000000   0.00000000
   0.00000000   0.00000000   1.00000000   0.00000000
   0.00000000   0.00000000   0.00000000   1.00000000
* p-type functions
    4    2
         22.66599400
          4.97603410
          1.34765430
          0.34775170
   0.03402890   0.00000000
   0.17865320   0.00000000
   0.38497320   0.00000000
   0.00000000   1.00000000
* d-type functions
    1    1
          1.40000000
   1.00000000

/Ne.JGauss-DZP.Gauss.8s4p1d.4s2p1d.
J. Gauss. J. Chem. Phys. 99 (1993) 3629-3643. doi:10.1063/1.466161
NEON (8s,4p,1d) -> [4s,2p,1d]
    10.0   2
* s-type functions
    8    4
      10880.93930600
       1633.33746480
        371.49062180
        104.45545960
         32.98857590
         10.82062020
          1.90725270
          0.54586680
  -0.00170160   0.00000000   0.00000000   0.00000000
  -0.01306250   0.00000000   0.00000000   0.00000000
  -0.06528230   0.00000000   0.00000000   0.00000000
  -0.23451310   0.00000000   0.00000000   0.00000000
  -0.55500080   0.00000000   0.00000000   0.00000000
   0.00000000   1.00000000   0.00000000   0.00000000
   0.00000000   0.00000000   1.00000000   0.00000000
   0.00000000   0.00000000   0.00000000   1.00000000
* p-type functions
    4    2
         28.39150750
          6.27021520
          1.69633170
          0.43248290
   0.04644650   0.00000000
   0.24193620   0.00000000
   0.51207000   0.00000000
   0.00000000   1.00000000
* d-type functions
    1    1
          1.88880000
   1.00000000

/Al.JGauss-DZP.Gauss.11s7p1d.6s4p1d.
J. Gauss. J. Chem. Phys. 99 (1993) 3629-3643. doi:10.1063/1.466161
ALUMINIUM (11s,7p,1d) -> [6s,4p,1d]
    13.0   2
* s-type functions
   11    6
      32386.38100000
       4858.40560000
       1105.91770000
        313.39239000
        102.65495000
         37.40987300
         14.45787800
          3.24052660
          1.16208120
          0.17691170
          0.06541400
   0.00062660   0.00000000   0.00000000   0.00000000   0.00000000   0.00000000
   0.00483760   0.00000000   0.00000000   0.00000000   0.00000000   0.00000000
   0.02470570   0.00000000   0.00000000   0.00000000   0.00000000   0.00000000
   0.09426710   0.00000000   0.00000000   0.00000000   0.00000000   0.00000000
   0.25654900   0.00000000   0.00000000   0.00000000   0.00000000   0.00000000
   0.00000000   0.45465580   0.00000000   0.00000000   0.00000000   0.00000000
   0.00000000   0.29587140   0.00000000   0.00000000   0.00000000   0.00000000
   0.00000000   0.00000000   1.00000000   0.00000000   0.00000000   0.00000000
   0.00000000   0.00000000   0.00000000   1.00000000   0.00000000   0.00000000
   0.00000000   0.00000000   0.00000000   0.00000000   1.00000000   0.00000000
   0.00000000   0.00000000   0.00000000   0.00000000   0.00000000   1.00000000
* p-type functions
    7    4
        145.67578000
         33.84750800
         10.41354700
          3.53110300
          1.20517500
          0.27188850
          0.07146470
   0.01057250   0.00000000   0.00000000   0.00000000
   0.07309950   0.00000000   0.00000000   0.00000000
   0.25799050   0.00000000   0.00000000   0.00000000
   0.47538180   0.00000000   0.00000000   0.00000000
   0.00000000   1.00000000   0.00000000   0.00000000
   0.00000000   0.00000000   1.00000000   0.00000000
   0.00000000   0.00000000   0.00000000   1.00000000
* d-type functions
    1    1
          0.30000000
   1.00000000

/Si.JGauss-DZP.Gauss.11s7p1d.6s4p1d.
J. Gauss. J. Chem. Phys. 99 (1993) 3629-3643. doi:10.1063/1.466161
SILICON (11s,7p,1d) -> [6s,4p,1d]
    14.0   2
* s-type functions
   11    6
      37778.32100000
       5667.24390000
       1290.06360000
        365.66405000
        119.94065000
         43.86308300
         17.03253700
          3.89077160
          1.44695580
          0.25532060
          0.09332780
   0.00061380   0.00000000   0.00000000   0.00000000   0.00000000   0.00000000
   0.00473910   0.00000000   0.00000000   0.00000000   0.00000000   0.00000000
   0.02420910   0.00000000   0.00000000   0.00000000   0.00000000   0.00000000
   0.09242290   0.00000000   0.00000000   0.00000000   0.00000000   0.00000000
   0.25154880   0.00000000   0.00000000   0.00000000   0.00000000   0.00000000
   0.00000000   0.45306130   0.00000000   0.00000000   0.00000000   0.00000000
   0.00000000   0.29955750   0.00000000   0.00000000   0.00000000   0.00000000
   0.00000000   0.00000000   1.00000000   0.00000000   0.00000000   0.00000000
   0.00000000   0.00000000   0.00000000   1.00000000   0.00000000   0.00000000
   0.00000000   0.00000000   0.00000000   0.00000000   1.00000000   0.00000000
   0.00000000   0.00000000   0.00000000   0.00000000   0.00000000   1.00000000
* p-type functions
    7    4
        178.34977000
         41.54942700
         12.84294400
          4.39728410
          1.53118940
          0.34443520
          0.09780950
   0.01025020   0.00000000   0.00000000   0.00000000
   0.07174730   0.00000000   0.00000000   0.00000000
   0.25746450   0.00000000   0.00000000   0.00000000
   0.48214280   0.00000000   0.00000000   0.00000000
   0.00000000   1.00000000   0.00000000   0.00000000
   0.00000000   0.00000000   1.00000000   0.00000000
   0.00000000   0.00000000   0.00000000   1.00000000
* d-type functions
    1    1
          0.40000000
   1.00000000

/P.JGauss-DZP.Gauss.11s7p1d.6s4p1d.
J. Gauss. J. Chem. Phys. 99 (1993) 3629-3643. doi:10.1063/1.466161
PHOSPHORUS (11s,7p,1d) -> [6s,4p,1d]
    15.0   2
* s-type functions
   11    6
      43629.14638400
       6544.91017610
       1489.87846310
        422.38300190
        138.69747970
         50.86538670
         19.82693680
          4.59330290
          1.75701880
          0.34358800
          0.12451450
   0.00060290   0.00000000   0.00000000   0.00000000   0.00000000   0.00000000
   0.00465510   0.00000000   0.00000000   0.00000000   0.00000000   0.00000000
   0.02378670   0.00000000   0.00000000   0.00000000   0.00000000   0.00000000
   0.09086660   0.00000000   0.00000000   0.00000000   0.00000000   0.00000000
   0.24743790   0.00000000   0.00000000   0.00000000   0.00000000   0.00000000
   0.00000000   0.45854750   0.00000000   0.00000000   0.00000000   0.00000000
   0.00000000   0.30750560   0.00000000   0.00000000   0.00000000   0.00000000
   0.00000000   0.00000000   1.00000000   0.00000000   0.00000000   0.00000000
   0.00000000   0.00000000   0.00000000   1.00000000   0.00000000   0.00000000
   0.00000000   0.00000000   0.00000000   0.00000000   1.00000000   0.00000000
   0.00000000   0.00000000   0.00000000   0.00000000   0.00000000   1.00000000
* p-type functions
    7    4
        215.97067950
         50.42898690
         15.65360400
          5.40859770
          1.91893640
          0.45420820
          0.13190940
   0.00997040   0.00000000   0.00000000   0.00000000
   0.07061430   0.00000000   0.00000000   0.00000000
   0.25773440   0.00000000   0.00000000   0.00000000
   0.49153070   0.00000000   0.00000000   0.00000000
   0.00000000   1.00000000   0.00000000   0.00000000
   0.00000000   0.00000000   1.00000000   0.00000000
   0.00000000   0.00000000   0.00000000   1.00000000
* d-type functions
    1    1
          0.45000000
   1.00000000

/S.JGauss-DZP.Gauss.11s7p1d.6s4p1d.
J. Gauss. J. Chem. Phys. 99 (1993) 3629-3643. doi:10.1063/1.466161
SULFUR (11s,7p,1d) -> [6s,4p,1d]
    16.0   2
* s-type functions
   11    6
      49931.30600000
       7490.27110000
       1705.10550000
        483.47884000
        158.90589000
         58.41318600
         22.84176700
          5.34985180
          2.09277890
          0.44225000
          0.15874340
   0.00063270   0.00000000   0.00000000   0.00000000   0.00000000   0.00000000
   0.00488590   0.00000000   0.00000000   0.00000000   0.00000000   0.00000000
   0.02497200   0.00000000   0.00000000   0.00000000   0.00000000   0.00000000
   0.09545410   0.00000000   0.00000000   0.00000000   0.00000000   0.00000000
   0.26011000   0.00000000   0.00000000   0.00000000   0.00000000   0.00000000
   0.00000000   0.46095980   0.00000000   0.00000000   0.00000000   0.00000000
   0.00000000   0.31306230   0.00000000   0.00000000   0.00000000   0.00000000
   0.00000000   0.00000000   1.00000000   0.00000000   0.00000000   0.00000000
   0.00000000   0.00000000   0.00000000   1.00000000   0.00000000   0.00000000
   0.00000000   0.00000000   0.00000000   0.00000000   1.00000000   0.00000000
   0.00000000   0.00000000   0.00000000   0.00000000   0.00000000   1.00000000
* p-type functions
    7    4
        253.96442000
         59.39457600
         18.49387100
          6.43328160
          2.31929120
          0.57410820
          0.16151190
   0.00983900   0.00000000   0.00000000   0.00000000
   0.07024180   0.00000000   0.00000000   0.00000000
   0.25887560   0.00000000   0.00000000   0.00000000
   0.49717320   0.00000000   0.00000000   0.00000000
   0.00000000   1.00000000   0.00000000   0.00000000
   0.00000000   0.00000000   1.00000000   0.00000000
   0.00000000   0.00000000   0.00000000   1.00000000
* d-type functions
    1    1
          0.55000000
   1.00000000

/Cl.JGauss-DZP.Gauss.11s7p1d.6s4p1d.
J. Gauss. J. Chem. Phys. 99 (1993) 3629-3643. doi:10.1063/1.466161
CHLORINE (11s,7p,1d) -> [6s,4p,1d]
    17.0   2
* s-type functions
   11    6
      56684.83800000
       8503.33490000
       1935.74590000
        548.95093000
        180.56372000
         66.50334300
         26.07415900
          6.15979090
          2.45308940
          0.55026280
          0.19609320
   0.00068910   0.00000000   0.00000000   0.00000000   0.00000000   0.00000000
   0.00532160   0.00000000   0.00000000   0.00000000   0.00000000   0.00000000
   0.02720540   0.00000000   0.00000000   0.00000000   0.00000000   0.00000000
   0.10405530   0.00000000   0.00000000   0.00000000   0.00000000   0.00000000
   0.28378060   0.00000000   0.00000000   0.00000000   0.00000000   0.00000000
   0.00000000   0.46220670   0.00000000   0.00000000   0.00000000   0.00000000
   0.00000000   0.31745470   0.00000000   0.00000000   0.00000000   0.00000000
   0.00000000   0.00000000   1.00000000   0.00000000   0.00000000   0.00000000
   0.00000000   0.00000000   0.00000000   1.00000000   0.00000000   0.00000000
   0.00000000   0.00000000   0.00000000   0.00000000   1.00000000   0.00000000
   0.00000000   0.00000000   0.00000000   0.00000000   0.00000000   1.00000000
* p-type functions
    7    4
        293.05101000
         68.61813200
         21.41839900
          7.49125170
          2.73861250
          0.70840490
          0.19755060
   0.01064150   0.00000000   0.00000000   0.00000000
   0.07642010   0.00000000   0.00000000   0.00000000
   0.28335380   0.00000000   0.00000000   0.00000000
   0.54501470   0.00000000   0.00000000   0.00000000
   0.00000000   1.00000000   0.00000000   0.00000000
   0.00000000   0.00000000   1.00000000   0.00000000
   0.00000000   0.00000000   0.00000000   1.00000000
* d-type functions
    1    1
          0.65000000
   1.00000000

/Br.JGauss-DZP.Gauss.14s11p6d.8s6p3d.
J. Gauss. J. Chem. Phys. 99 (1993) 3629-3643. doi:10.1063/1.466161
BROMINE (14s,11p,6d) -> [8s,6p,3d]
    35.0   2
* s-type functions
   14    8
     646312.41039000
      96873.03890000
      22048.96757400
       6248.35574820
       2048.74679770
        754.70826960
        302.69689100
        124.16866900
         31.54428110
         14.02943600
          4.94166790
          2.07566180
          0.42101470
          0.16058110
   0.00020840   0.00000000   0.00000000   0.00000000   0.00000000   0.00000000   0.00000000   0.00000000
   0.00161700   0.00000000   0.00000000   0.00000000   0.00000000   0.00000000   0.00000000   0.00000000
   0.00842250   0.00000000   0.00000000   0.00000000   0.00000000   0.00000000   0.00000000   0.00000000
   0.03436090   0.00000000   0.00000000   0.00000000   0.00000000   0.00000000   0.00000000   0.00000000
   0.11206360   0.00000000   0.00000000   0.00000000   0.00000000   0.00000000   0.00000000   0.00000000
   0.27360430   0.00000000   0.00000000   0.00000000   0.00000000   0.00000000   0.00000000   0.00000000
   0.00000000   0.40561280   0.00000000   0.00000000   0.00000000   0.00000000   0.00000000   0.00000000
   0.00000000   0.32541500   0.00000000   0.00000000   0.00000000   0.00000000   0.00000000   0.00000000
   0.00000000   0.00000000   1.00000000   0.00000000   0.00000000   0.00000000   0.00000000   0.00000000
   0.00000000   0.00000000   0.00000000   1.00000000   0.00000000   0.00000000   0.00000000   0.00000000
   0.00000000   0.00000000   0.00000000   0.00000000   1.00000000   0.00000000   0.00000000   0.00000000
   0.00000000   0.00000000   0.00000000   0.00000000   0.00000000   1.00000000   0.00000000   0.00000000
   0.00000000   0.00000000   0.00000000   0.00000000   0.00000000   0.00000000   1.00000000   0.00000000
   0.00000000   0.00000000   0.00000000   0.00000000   0.00000000   0.00000000   0.00000000   1.00000000
* p-type functions
   11    6
       3890.71817980
        923.85869490
        300.75537090
        115.96376910
         49.09327110
         21.81039210
          9.61901360
          4.13415490
          1.75495990
          0.52801530
          0.15604840
   0.00151200   0.00000000   0.00000000   0.00000000   0.00000000   0.00000000
   0.01252930   0.00000000   0.00000000   0.00000000   0.00000000   0.00000000
   0.06040560   0.00000000   0.00000000   0.00000000   0.00000000   0.00000000
   0.00000000   0.21102290   0.00000000   0.00000000   0.00000000   0.00000000
   0.00000000   0.40341290   0.00000000   0.00000000   0.00000000   0.00000000
   0.00000000   0.37386480   0.00000000   0.00000000   0.00000000   0.00000000
   0.00000000   0.00000000   1.00000000   0.00000000   0.00000000   0.00000000
   0.00000000   0.00000000   0.00000000   0.59931630   0.00000000   0.00000000
   0.00000000   0.00000000   0.00000000   0.33979400   0.00000000   0.00000000
   0.00000000   0.00000000   0.00000000   0.00000000   1.00000000   0.00000000
   0.00000000   0.00000000   0.00000000   0.00000000   0.00000000   1.00000000
* d-type functions
    6    3
        104.85732970
         30.28008050
         10.65149710
          3.87058930
          1.32429970
          0.38900000
   0.02264930   0.00000000   0.00000000
   0.13456250   0.00000000   0.00000000
   0.36469670   0.00000000   0.00000000
   0.49046480   0.00000000   0.00000000
   0.00000000   1.00000000   0.00000000
   0.00000000   0.00000000   1.00000000
