************************************************************************
* This file is part of OpenMolcas.                                     *
*                                                                      *
* OpenMolcas is free software; you can redistribute it and/or modify   *
* it under the terms of the GNU Lesser General Public License, v. 2.1. *
* OpenMolcas is distributed in the hope that it will be useful, but it *
* is provided "as is" and without any express or implied warranties.   *
* For more details see the full text of the license in the file        *
* LICENSE or in <http://www.gnu.org/licenses/>.                        *
************************************************************************

#Hamiltonian RCP
#Nucleus UNK
#Contraction SEG
#AllElectron NAE

************************************************************************
* Non-local representation of the LANL2DZ ECPs                         *
************************************************************************

/Na.LANL2DZ_NL.Wadt.3s3p.2s2p.ECP.1el.
W.R. Wadt, P.J. Hay. J. Chem. Phys. 82 (1985) 284-298. doi:10.1063/1.448800
SODIUM (3s,3p) -> [2s,2p]
     1.0   1
* s-type functions
    3    2
          0.49720000
          0.05600000
          0.02210000
  -0.27535740   0.00000000
   1.09899690   0.00000000
   0.00000000   1.00000000
* p-type functions
    3    2
          0.66970000
          0.06360000
          0.02040000
  -0.06838450   0.00000000
   1.01405500   0.00000000
   0.00000000   1.00000000
M1
  0
M2
  0
COREREP
 1.0
PROJOP
    2
   12   12
 -30.37183268320000  -1.15991431326e-6  -2.90609511315e-9 -65.7459488245e-16  81.9254471611e-13   6.88421076751e-5   0.00605527546220   0.09773125845890   0.54376096229800
   1.81068968400000   7.04897908743000  92.51019204970000
0.05215208279500
0.07852182557190
0.12221953662700
0.19212581136800
0.30201658763100
0.47948024110800
0.76122077736300
1.20851084614000
1.91862664377000
3.04600344295000
4.83582202123000
7.67733033104000
  -0.00411304097362  -0.75078609153800   2.78846928275000  30.52748157680000 -13.13846410420000  -0.33522260965000   0.06643437779890  -0.01753159331740   0.00564231251410
  -0.00281543730044   0.00196507028656  -6.60789715898e-4
   0.03276418825010   5.76028768773000 -20.23044260440000  -1.031886063330e2  72.02921109800000   2.58660140795000  -0.52798487309100   0.14041604189800  -0.04524048635770
   0.02250408538010  -0.01566053463000   0.00524953131417
  -0.15973909504900 -25.94713641420000  79.19460391080000 175.76580431500000  -1.728362400620e2 -11.88274490160000   2.56131241324000  -0.69091035821200   0.22307750151200
  -0.11037847876100   0.07641560506310  -0.02547527618830
   0.62028837341500  83.93943969740000  -1.737579365450e2  -2.126614285540e2 262.12058495600000  41.23210890350000  -9.83330720452000   2.72264562453000  -0.88281642211500
   0.43307673722900  -0.29720554567000   0.09817727593210
  -2.02804143580000  -1.643060285880e2 246.92102108100000 206.78536849100000  -2.931413145520e2  -1.075513370170e2  31.24574405350000  -9.10139915704000   2.97815661556000
  -1.44151376403000   0.97477328792500  -0.31712803981200
   5.94054942799000 217.14390565700000  -2.632616727180e2  -1.745053122460e2 269.31059427000000 191.53138856300000 -83.93735830010000  27.47470361630000  -9.20005919947000
   4.36287831432000  -2.87456327277000   0.91056367530900
 -15.28280379020000  -2.176342424900e2 232.17357768900000 134.36176397900000  -2.178425904000e2  -2.401359087070e2 151.18679330000000 -71.29692692240000  25.68128442460000
 -11.88278167760000   7.49496649882000  -2.26500626554000
  32.84070938190000 175.94855721400000  -1.745668627300e2 -93.42964848680000 155.89688689500000 225.11263990400000  -1.820942830540e2 119.59265446900000 -59.28216390100000
  27.55833270820000 -16.39751890410000   4.57286692774000
 -55.52562473670000  -1.167992674930e2 111.26816348400000  56.90634748020000 -96.58195242270000  -1.636440079630e2 154.79527034600000  -1.270735016000e2  84.21623943760000
 -48.82438418020000  27.91568079530000  -6.80337240434000
  67.46276798310000  61.39334409190000 -57.15192560770000 -28.45413507660000  48.78826283610000  90.72926330960000 -93.96672753480000  87.81969264120000 -69.95471696160000
  50.23469672210000 -32.37538908080000   6.11142126671000
 -50.44408417910000 -22.81748305040000  20.95773679780000  10.26679993840000 -17.71346079730000 -34.76954452040000  37.81744840650000 -37.71731566160000  32.95812008490000
 -26.66266164470000  18.94215200830000  -1.36695848806000
  16.72322067070000   4.43876980001000  -4.04449206194000  -1.96188835631000   3.39781597070000   6.88319886733000  -7.67524901002000   7.86456267161000  -7.11122686908000
   5.93942860325000  -4.03188331376000  -1.80963398887000
   10   10
  -2.53382975826e-8 -10.3065293784e-12 -58.6529636375e-17   3.39202782603e-7   2.66308462825e-4   0.01376859397700   0.18509970158900   0.96916281999800   3.52572893942000
  19.10350956880000
0.09202340485560
0.12612693096300
0.18151254972600
0.27004553493400
0.40176060028800
0.60837508101400
0.92124573423500
1.39501720128000
2.11243636693000
3.19880457403000
  -1.74046639244000   9.01696920861000 -39.74991587190000  -0.80062690751200  -0.06977540444980   0.01178484683770   0.00240848317049   5.77158227774e-4   2.79098420576e-4
   2.37424635704e-4
  13.22262408230000 -55.93477745080000 132.29047085600000   6.33169018389000   0.61005402413600  -0.10547347182500  -0.02173970836650  -0.00523741416264  -0.00251052989835
  -0.00211100861027
 -52.68337284120000 135.14594058800000  -2.147539842250e2 -27.85552793440000  -3.25581609784000   0.58782206016800   0.12302601388800   0.02991541009720   0.01413700889000
   0.01165246918980
 111.46305274000000  -2.019442749620e2 247.51824222100000  81.99041319360000  14.24264553030000  -2.80040403919000  -0.60310517613100  -0.14907822119900  -0.06890781676310
  -0.05489087106390
  -1.455054649690e2 215.88993667100000  -2.256120379330e2  -1.456791819020e2 -46.21290672590000  10.85564643870000   2.46906804590000   0.62769994967600   0.28148876062500
   0.21227717004400
 135.84670518500000  -1.795990770710e2 169.32096173100000 173.78810359900000  87.14626958560000 -34.87571940340000  -9.06652720369000  -2.43507445983000  -1.05156821061000
  -0.72480513387500
 -99.23558266200000 123.31007063100000  -1.090943812020e2  -1.507524117730e2  -1.017368576450e2  60.80990868270000  26.14354777570000   7.95910406978000   3.35036167995000
   2.06556953158000
  55.30915449340000 -66.45358797410000  56.51022202640000  94.28215897900000  76.85783959390000 -59.62784183410000 -37.27492453080000 -17.88784671360000  -7.81628052095000
  -4.41727532164000
 -21.34565996800000  25.16833302530000 -20.87619406380000 -39.23105042670000 -36.02894479180000  32.96500685100000  26.09949160750000  17.52595268010000  10.88212811790000
   6.12884874902000
   4.28281896626000  -4.99480417029000   4.07812187591000   8.26306440930000   8.17893960855000  -8.29348956008000  -7.57067708800000  -6.23414156905000  -5.17556944666000
  -4.11539344696000
    9    9
  -2.24755031083000  -0.34343585209500  -0.05795077987450  -0.00720324168748  -0.00035944751961  -5.19840597599e-6  -1.95598131723e-8 -18.6346804867e-12  -3.2902585852e-15
0.12937272966100
0.16817907671700
0.23364915504000
0.33297305249100
0.47923529653300
0.69659979727200
1.01255329286000
1.47181233026000
2.16063705771000
  -0.00025137359666  -4.69770546422e-4   0.00111577569237   0.00465924771038  -0.02504143851980  -0.16187549778600  -1.13305074958000   7.55791476200000 -43.66780719810000
   0.00226854023148   0.00428555427539  -0.01030407348480  -0.04286086020180   0.22728370145900   1.41598921724000   8.99400500218000 -47.25674141920000 135.99892820100000
  -0.01423357843810  -0.02742716499950   0.06733148716140   0.27777199302200  -1.43351176438000  -8.25678361691000 -41.92859631830000 116.05215548200000  -2.123275131740e2
   0.07303474872490   0.14548829548000  -0.36826977228800  -1.49291511013000   7.28531579132000  35.04305691270000  95.05778656590000  -1.704786393370e2 234.34487056100000
  -0.30505637603800  -0.64007190610700   1.68267310585000   6.54377059051000 -27.73184855600000 -72.71827007920000  -1.288222593580e2 175.05068505100000  -2.004025567510e2
   1.03416455754000   2.31019406482000  -6.21320371342000 -21.34742101210000  51.31058705260000  88.58558754590000 119.09747007900000  -1.350028164000e2 137.11286991300000
  -2.57626749355000  -5.96797752010000  15.14644626440000  31.74166653760000 -51.94811864180000 -68.99058918200000 -77.77867914840000  78.46585740850000 -73.77621496740000
   4.08267282389000   8.99868236206000 -15.18304844180000 -22.58310464710000  29.12919727880000  32.75450352660000  32.96053160830000 -30.82995803440000  27.56818474340000
  -3.20472890208000  -4.44841809943000   5.48153037455000   6.59020033047000  -7.31933368897000  -7.38398685199000  -6.89120373068000   6.12873757039000  -5.29919683312000
Spectral Representation Operator
End of Spectral Representation Operator

/Mg.LANL2DZ_NL.Wadt.3s3p.2s2p.ECP.2el.
W.R. Wadt, P.J. Hay. J. Chem. Phys. 82 (1985) 284-298. doi:10.1063/1.448800
MAGNESIUM (3s,3p) -> [2s,2p]
     2.0   1
* s-type functions
    3    2
          0.72500000
          0.11120000
          0.04040000
  -0.40584540   0.00000000
   1.16887040   0.00000000
   0.00000000   1.00000000
* p-type functions
    3    2
          1.24000000
          0.13460000
          0.04220000
  -0.07497530   0.00000000
   1.01781830   0.00000000
   0.00000000   1.00000000
M1
  0
M2
  0
COREREP
 1.0
PROJOP
    2
   14   14
  -1.003791263060e2  -1.51011328696e-6  -4.55622017757e-9 -24.6067319872e-13  16.0651081151e-16   3.05555939752e-5   0.00679534825577   0.15767848672800   0.82818495593100
   2.02447062136000   4.53194028091000  10.37869985260000  30.88832494780000 339.00182312500000
0.07149948231980
0.10765188230900
0.16756058684200
0.26340071799400
0.41405881625900
0.65735800344700
1.04361875108000
1.65684465981000
2.63039948632000
4.17601095955000
6.62981711522000
1.052546925930e1
1.671018991970e1
2.652902595360e1
   0.00126470020789   0.77438140796700   3.21360685465000  11.06039623860000 -31.70442188950000   0.35850976067000  -0.05266030721820  -0.01565012843040  -0.00693741012167
   0.00224894793241   3.07118549827e-4  -1.70141771333e-4   3.71750343861e-4  -1.79368465693e-4
  -0.01026613356040  -5.95774791428000 -22.77740196240000 -65.29186135020000 109.72637436000000  -2.79434512297000   0.42552577820100   0.12724341377900   0.05651359347570
  -0.01838382842020  -0.00255908940383   0.00141129211616  -0.00302658084541   0.00145634448483
   0.05162907107570  26.94357994350000  86.65429067590000 162.32489940200000  -1.922729166630e2  13.02864980350000  -2.12140975272000  -0.64159015529500  -0.28594139069600
   0.09357710048910   0.01345420155040  -0.00736591981966   0.01530060250040  -0.00732724872166
  -0.21045823845200 -87.69788056960000  -1.893668669720e2  -2.523766892430e2 240.17188412400000 -46.04390191250000   8.50034296457000   2.62547260063000   1.17731757508000
  -0.38920907684200  -0.05893362580230   0.03192189584000  -0.06293796647460   0.02989370141430
   0.73982829310600 174.38101066300000 273.40139231500000 290.28725766900000  -2.424364435820e2 121.96843775500000 -28.80510991090000  -9.27451503406000  -4.20625661544000
   1.41445036500000   0.23208985087000  -0.12392559088200   0.22478947890100  -0.10526519674900
  -2.39959244266000  -2.381107839490e2  -3.026349306370e2  -2.783340358730e2 215.16338291600000  -2.255049330820e2  84.90623388220000  30.17503223220000  14.02085983770000
  -4.86298225940000  -0.90610621898200   0.47540948734800  -0.75163650399500   0.34272903025700
   6.84136415172000 253.44944725100000 285.22792458400000 241.11856104100000  -1.783324771040e2 303.40308041100000  -1.679699776760e2 -84.08118242910000 -41.79301286340000
  15.39468079330000   3.47458888207000  -1.79072511828000   2.27806068746000  -0.98553199931100
 -15.95631306850000  -2.274834264210e2  -2.394238257680e2  -1.928066914660e2 138.99854894400000  -3.195494268350e2 228.30615849600000 154.98530113900000 101.16349943900000
 -42.07092942270000 -11.97080281880000   6.07889432488000  -5.89975953579000   2.33024276944000
  30.28964563640000 180.02058269900000 182.67774643700000 143.03269992900000  -1.015714411550e2 279.94123863600000  -2.335074548610e2  -1.938212188380e2  -1.665414184660e2
  93.22259095250000  33.79346179530000 -17.06284184970000  12.85845373740000  -4.46721199219000
 -48.66443183040000  -1.268428141780e2  -1.261245023100e2 -97.13273469490000  68.35496953020000  -2.099222870530e2 191.58858361800000 178.74970721700000 187.24360620400000
  -1.394689747840e2 -72.23951064730000  37.67669589710000 -23.62230124370000   7.03792336661000
  67.01626955160000  77.78171635910000  76.44254498160000  58.29064281850000 -40.79550688900000 133.67100833300000  -1.284423084160e2  -1.274859736240e2  -1.505664792010e2
 137.00812624200000  96.24782651990000 -61.49631617040000  35.30427477690000  -8.80529446212000
 -73.06081266140000 -39.03507916930000 -38.09869847280000 -28.87761095650000  20.14222574670000 -68.62880232880000  67.88324182030000  69.24256194080000  86.91506336420000
 -89.33400227790000 -76.98746429840000  60.49273861270000 -37.97923599060000   7.33135758987000
  52.24513255850000  14.11419230770000  13.71806902310000  10.35958071620000  -7.21078320325000  25.15738756680000 -25.26431036530000 -25.87011516120000 -33.20349347560000
  36.67945692830000  35.70378207900000 -31.82730119490000  21.80327757550000  -1.94605599074000
 -17.06192721360000  -2.70047766586000  -2.61791687246000  -1.97249627562000   1.37118086266000  -4.85301556474000   4.90637666052000   4.96879499479000   6.37879984521000
  -7.38666355890000  -7.70864114370000   7.19884222585000  -4.75046719265000  -1.64855323003000
   13   13
 -17.37638889460000  -8.54284675788e-9 -12.7920247694e-14  25.8845666826e-11   1.33777943972e-5   4.75625676098e-4   0.00654970042114   0.11200016840200   0.50093226877300
   1.84379493572000   7.30640181130000  20.06696609110000  59.98083284990000
0.12334349414400
0.16905412699100
0.24329019502500
0.36195530809800
0.53849948637200
0.81543503373100
1.23479095350000
1.86981014523000
2.83140232708000
4.28751504973000
6.49246669250000
9.83136461664000
1.488736635910e1
  -0.00676903373104   2.01346052694000 -38.93129748270000  17.82940296620000  -1.73137099016000  -0.69157546706000  -0.06659377411300   0.02513834012710  -0.00205786490739
  -0.00418654362492  -0.00405695009202   0.00358394347345  -6.90782389052e-4
   0.04334800824060 -14.90421032420000 126.70542680500000 -87.56888728840000  10.90088618080000   4.51210108725000   0.41096300796600  -0.15821148868600   0.01235836769570
   0.02698022813140   0.02604682734420  -0.02306829758020   0.00440978983440
  -0.15856963618800  59.84773905260000  -2.030542376250e2 194.43553105100000 -38.59327674100000 -17.10683500870000  -1.38665207999000   0.55706892704600  -0.03872723191170
  -0.10004227283600  -0.09580045110060   0.08528158637320  -0.01602705608560
   0.44759476368700  -1.330387502760e2 236.97167351800000  -2.877426680430e2 101.90996280500000  52.01856026980000   3.13822155198000  -1.41927097455000   0.06282223300500
   0.29208254040400   0.27408892956000  -0.24691363291600   0.04453746014690
  -0.88650102172300 189.30403485400000  -2.279176879100e2 322.29346059700000  -1.777187419650e2  -1.221761515140e2  -1.79256674487000   1.85216359294000   0.17292321542100
  -0.64081889375900  -0.56612139906100   0.52740014179300  -0.08395996574810
   0.90125273150400  -2.039984224050e2 192.67725451900000  -3.005865976730e2 223.71026312300000 215.11826364800000 -23.04864131680000   4.56138944159000  -2.24569212178000
   1.08969451739000   0.73804669981100  -0.80083419404000   0.05648216039910
   0.27887677084800 187.28463712500000  -1.536143612750e2 254.20061667900000  -2.259438626300e2  -2.892513218060e2  74.48608504000000 -36.15357242950000  12.41654707050000
  -2.50237299874000  -0.82792447458800   1.46705425043000   0.20301167323700
  -0.46228508387700  -1.508368076500e2 113.92571206800000  -1.953190279150e2 191.93431951000000 306.18500756200000  -1.203879483600e2  87.15691187270000 -43.83922543830000
  10.03141772720000   3.63057765443000  -6.09823004151000  -0.72315449673500
  -5.34260467566000 107.35307334400000 -77.20380042470000 135.24119992500000  -1.405152612400e2  -2.626967651710e2 130.98058719100000  -1.210176833530e2  82.36636369650000
 -30.72780739170000 -14.37174558630000  21.28415026630000   1.39145535859000
  13.90664552710000 -66.05767472660000  46.11401820490000 -81.85978439710000  87.73239081810000 182.93906908900000  -1.052743561340e2 113.88969517200000 -93.04423732960000
  46.28905201210000  29.80347320270000 -45.65920756500000  -2.57989738951000
 -11.66673902680000  33.13746140870000 -22.71186928860000  40.65329902270000 -44.33889172050000 -99.44047154990000  62.64829261060000 -75.07824152810000  67.71698550560000
 -38.69831160490000 -31.03258264880000  58.99155976120000   4.31845859553000
   0.00207813308809 -11.98344337180000   8.11930207301000 -14.60961204930000  16.09700119880000  37.87740881090000 -25.25799141430000  32.19449359610000 -30.63436651420000
  18.93737541930000  17.99635319080000 -42.01504556020000  -3.87631660502000
   3.16868880813000   2.30850594995000  -1.55275537160000   2.80332137941000  -3.10815517475000  -7.55082611475000   5.20393969427000  -6.83949541842000   6.73839239105000
  -4.50968131399000  -5.10181236598000  12.96273924450000   0.36681488784000
   12   12
  -6.82995207628000  -2.09769906804000  -1.08810656724000  -0.21913136374500  -0.04374197028640  -0.00754990990136  -9.95643471773e-4  -5.15295329392e-5  -6.54010840750e-7
  -2.86537661393e-9 -37.9167246623e-13   1.80584727290000
0.18098419330700
0.23527179654100
0.32686025836000
0.46580805287100
0.67041959904800
0.97449866519100
1.41649744400000
2.05897153124000
3.02259336989000
4.43720106913000
6.51386108497000
9.56242134924000
   0.00696083073378   0.04225892896910   0.06156639161880   0.08513944956900  -0.13998440484300   0.36251596231100  -1.02304443838000   2.51285464023000   7.13679193993000
  20.05760902370000  43.71912766350000   0.08427436125420
  -0.03837927987610  -0.23571453544100  -0.34207130355600  -0.47294314320000   0.78035357141200  -2.02077255766000   5.64344745579000 -13.52565250610000 -36.06440149010000
 -87.10319141830000  -1.337422783520e2  -0.46678188475800
   0.13052179463600   0.81962873847700   1.18069973714000   1.63186910050000  -2.71097787629000   7.01547105920000 -19.17448744190000  43.66378415430000 101.85659496800000
 180.25979046300000 208.45912430700000   1.60144708224000
  -0.35233439617200  -2.30397575151000  -3.27552306331000  -4.52521386602000   7.61067265094000 -19.63096607510000  51.33767850880000  -1.049979874880e2  -1.854300254910e2
  -2.501512152600e2  -2.389066304010e2  -4.39340386556000
   0.78297090068400   5.52490285173000   7.67012319228000  10.59014918640000 -18.19867568480000  46.31700874050000  -1.096571974310e2 174.71292587600000 239.07242672700000
 266.88208506300000 225.96445579300000  10.07174771090000
  -1.47286048597000 -12.02664284020000 -16.00337292650000 -22.05284964900000  39.09726841920000 -94.06315871660000 172.32444492900000  -2.128604650450e2  -2.425737120470e2
  -2.397334791760e2  -1.884616185940e2 -20.18325206080000
   2.27010837472000  23.97894872700000  29.87647231850000  40.76636567580000 -73.10079604880000 140.74232705500000  -1.991427967640e2 203.06008822300000 206.56160507400000
 189.84078565800000 142.77938577300000  35.24209154980000
  -2.48730260532000 -41.37081713590000 -46.97239768460000 -61.37413279740000  95.95977813560000  -1.480808471300e2 172.70430044000000  -1.549881844630e2  -1.477466975980e2
  -1.301500961730e2 -95.30262494910000 -50.26620441600000
   1.06959732026000  58.79461769210000  58.00146235240000  63.79053787490000 -86.23257977340000 113.96008996800000  -1.165373602010e2  96.53742822210000  88.84017364720000
  76.31129551460000  54.94682409400000  54.10411617350000
   1.89030008254000 -62.05437861880000 -48.88946330470000 -44.10933540180000  54.41136314980000 -65.60091348370000  61.75364345390000 -48.83240657580000 -44.15837038310000
 -37.37691124170000 -26.63287790030000 -37.50998278310000
  -3.08688299158000  40.20530747370000  26.40931763960000  19.71874931990000 -22.77111397620000  25.93589512490000 -23.13864619870000  17.78694473750000  15.94184382600000
  13.37494879880000   9.46751484975000  11.77279132980000
   0.40233184413900 -11.92178380620000  -7.39863034105000  -4.61639007850000   4.92671104164000  -5.36632223931000   4.60743654221000  -3.47077137072000  -3.09400001012000
  -2.58155069711000  -1.81962414828000   0.22758527449100
Spectral Representation Operator
End of Spectral Representation Operator

/Al.LANL2DZ_NL.Wadt.3s3p.2s2p.ECP.3el.
W.R. Wadt, P.J. Hay. J. Chem. Phys. 82 (1985) 284-298. doi:10.1063/1.448800
ALUMINIUM (3s,3p) -> [2s,2p]
     3.0   1
* s-type functions
    3    2
          0.96150000
          0.18190000
          0.06570000
  -0.50215460   0.00000000
   1.23425470   0.00000000
   0.00000000   1.00000000
* p-type functions
    3    2
          1.92800000
          0.20130000
          0.05800000
  -0.07125840   0.00000000
   1.01629660   0.00000000
   0.00000000   1.00000000
M1
  0
M2
  0
COREREP
 1.0
PROJOP
    2
   15   15
  -1.747156738790e2  -6.25770710118e-7  -1.47619195109e-9 -81.6054536949e-15  90.3963715907e-14   3.55477448420e-5   0.00700927041131   0.21542561719800   1.51310959871000
   4.24883209578000   5.94907124635000  12.48953605980000  27.47500216080000  64.18173434150000 656.05572627500000
0.08770646047920
0.13205362129700
0.20554199150700
0.32310646054200
0.50791463135200
0.80636309354200
1.28017859398000
2.03240605332000
3.22663914628000
5.12259849024000
8.13261542509000
1.291130542020e1
2.049793319120e1
3.254243095000e1
5.166422401020e1
   0.00169825775791   0.74247153594500   3.02281403502000  30.76315382130000  13.73359323330000   0.29211940867700  -0.04984168018440  -0.01441461679330   0.00679593623380
   0.00659016934770  -0.00340706275406   0.00123379537003  -0.00125705426759  -1.30587946638e-5  -2.08594102103e-4
  -0.01385631415840  -5.77052827678000 -21.77844074670000  -1.043769954920e2 -74.82811053230000  -2.29893872383000   0.40438781701800   0.11757267270100  -0.05547558837880
  -0.05383518540880   0.02788302727190  -0.01003799497330   0.01023337054670   9.71851140016e-5   0.00170264103064
   0.07027169943780  26.53504114000000  84.76330912660000 179.33532865200000 180.30967096700000  10.90422914460000  -2.02951992018000  -0.59586614433800   0.28156952831200
   0.27359451143200  -0.14215309173700   0.05065114827050  -0.05169109609180  -4.08842860925e-4  -0.00864114140703
  -0.29018483091200 -88.54470622080000  -1.883550631700e2  -2.207080716350e2  -2.775206389080e2 -39.71745990550000   8.21707530942000   2.45705034698000  -1.16422758659000
  -1.13375375944000   0.59223029440400  -0.20734437594800   0.21197760894000   0.00108634110236   0.03572875153650
   1.03929335687000 180.97272438700000 275.98228387600000 221.15766926800000 319.42157403200000 110.83909693500000 -28.27245329950000  -8.76954617179000   4.17775223770000
   4.08416907242000  -2.15282729319000   0.73126548635800  -0.74988205345600  -8.72769826201e-5  -0.12825334788000
  -3.45512903309000  -2.549423305200e2  -3.105568448280e2  -1.965077660340e2  -3.087637223180e2  -2.139445969540e2  85.05174386570000  28.85978227570000 -13.92689644440000
 -13.71887180310000   7.35274908492000  -2.35873899195000   2.43275570055000  -0.02441338760660   0.42830221025700
  10.06387294390000 281.01633862600000 298.86326191500000 164.65512739000000 271.71765007900000 298.27112005100000  -1.714691525020e2 -80.64008083450000  40.62452442540000
  40.74426787100000 -22.57625572530000   6.41956018235000  -6.70618233506000   0.22722841160500  -1.25978590954000
 -23.27478130470000  -2.627684174500e2  -2.583665511490e2  -1.313406105770e2  -2.230459323050e2  -3.261401680840e2 238.73290478600000 146.86925411500000 -91.74226985780000
 -97.15498537360000  57.46662831960000 -12.61421673140000  13.63020083010000  -1.29087423980000   2.97202707616000
  41.19948267720000 219.22074481400000 206.10769294700000  99.95182253910000 172.65199863100000 300.06752022000000  -2.535860607380e2  -1.813728588290e2 136.42459334500000
 175.65507680000000  -1.174557937310e2  14.23931824110000 -17.39695486780000   4.96226701946000  -5.45027418558000
 -57.00300841020000  -1.665697158360e2  -1.526132189890e2 -71.96453691350000  -1.255872393360e2  -2.419401346590e2 221.73672136500000 168.86544976800000  -1.389698091740e2
  -2.289999174090e2 191.36970730400000   1.73429590872000   6.24748164104000 -13.78512543370000   7.95816037383000
  65.85011275170000 114.69523456800000 103.50189674400000  47.98788669120000  84.26881039280000 172.65689210400000  -1.656409607000e2  -1.285980540390e2 107.82940601600000
 220.47031406200000  -2.334054427890e2 -39.85237314570000  26.40784513830000  28.85198183560000  -9.71209535782000
 -69.63784253550000 -69.39715909080000 -62.05806943360000 -28.47744551270000 -50.19953158240000  -1.067589771950e2 105.22563277400000  82.32957388170000 -68.80677151690000
  -1.628805903430e2 204.81989947200000  66.97101558390000 -64.70568631680000 -45.24587723820000  10.08096599830000
  67.18096116430000  34.55018085420000  30.72641879040000  14.01068606990000  24.75627854350000  53.86212373960000 -53.97327353740000 -42.44293653010000  35.25160602480000
  90.34126856720000  -1.257277863560e2 -56.46783039460000  69.94909509710000  49.01473747140000  -7.72671551898000
 -47.37516480830000 -12.43198030060000 -11.01878813620000  -5.00470006307000  -8.85606638178000 -19.53908239580000  19.76608290320000  15.49171471570000 -12.52182297260000
 -33.37794270770000  49.79202708480000  27.10260178630000 -39.16589069190000 -29.01549928470000   2.18652065898000
  15.80517782400000   2.37148358138000   2.09752387995000   0.95037382593900   1.68326746744000   3.74560896672000  -3.80618309646000  -2.93853557306000   2.22942806999000
   6.08827143491000  -9.75734504820000  -6.17692484794000   9.58524741527000   6.88195636771000   1.51855490563000
   16   16
 -71.64316434330000 -27.20180038210000  96.0863062771e-13   6.46174303032e-9   1.27600935426e-6   1.02785831094e-4   0.00319722158761   0.02816170225690   0.09701338277290
   0.30490903458100   0.91182035804900   2.45500307889000   6.54202829403000  20.90429671820000  53.14188914710000 132.80698103000000
0.08155182683420
0.11177462569600
0.16085777359300
0.23931636453600
0.35604323655400
0.53914652837500
0.81641483172700
1.23627463479000
1.87205684319000
2.83480444032000
4.29266677669000
6.50026781164000
9.84317763785000
1.490525449380e1
2.257061893000e1
3.417807049840e1
   5.89157110142000   2.73346997011000 -25.11120436710000 -24.05616069360000  18.31758418580000  12.45755345110000   7.20056040600000   3.34512448032000   1.06918650021000
  -1.48368261092000   3.95220713441000   3.65739852491000  -2.57525511447000  -1.65513687349000   6.42197289830000   1.62187971369000
 -26.10687123700000 -12.10396747580000  67.75810743520000  89.22172553320000 -76.33094180560000 -54.05525882620000 -31.61312042190000 -14.70713039280000  -4.67426467590000
   6.60177231409000 -17.52070260030000 -16.20759315430000  11.41245636940000   7.33547376287000 -28.45486402700000  -7.18727013280000
  61.73011805120000  28.57603266990000 -84.47396318920000  -1.475076666470e2 158.22247186300000 122.10254459700000  73.25576463800000  34.18415537100000  10.72680255720000
 -15.75028202350000  41.46738637090000  38.32767849000000 -26.98973827920000 -17.35093744960000  67.27007971100000  16.99624068640000
  -1.130685064850e2 -52.16188300940000  73.04005112400000 158.64418498800000  -2.176679986520e2  -2.014127342020e2  -1.281062674000e2 -60.18818595170000 -18.30105474410000
  29.43472945340000 -76.12103971430000 -70.22400067100000  49.45636042520000  31.80611018950000  -1.231670320350e2 -31.13879825370000
 172.22992750000000  78.87863278830000 -52.09560645150000  -1.295526275960e2 216.34021825000000 244.16629627200000 175.95758188200000  83.85064047830000  23.46174765700000
 -46.78756467150000 116.52115187400000 107.04707793600000 -75.40362345880000 -48.53018906210000 187.45476949900000  47.45593880050000
  -2.313209161010e2  -1.042757011430e2  33.36895060630000  88.92002568200000  -1.707670132750e2  -2.274347484850e2  -1.847211552810e2 -89.89850196290000 -18.24840352080000
  68.89572791330000  -1.583541877190e2  -1.440787935390e2 101.50375689600000  65.42633811500000  -2.513070102610e2 -63.80908184430000
 280.10903171700000 122.36288708900000 -21.50622572680000 -58.31433614670000 121.45952977700000 180.02614990700000 150.81842590800000  58.19864342150000 -10.61128286330000
 -99.35761100040000 197.00738540500000 175.51821685300000  -1.235746643750e2 -79.84121907390000 303.19582163100000  77.44016366310000
  -2.979078731200e2  -1.223649151360e2  14.06016088150000  37.67044088940000 -81.66740652400000  -1.285179061230e2 -99.38373216150000   2.62529310447000  75.58031329890000
 141.96118268600000  -2.228534932640e2  -1.898772637720e2 133.15344726200000  86.26845689820000  -3.201550753890e2 -82.72502759070000
 275.30291922300000  98.81458822360000  -9.33420006050000 -24.40867093520000  53.79212319790000  87.49849095460000  57.50635787220000 -53.53861985840000  -1.523371920320e2
  -2.022931025590e2 237.09388378600000 184.22232704700000  -1.272483012950e2 -82.52171249710000 291.49100343700000  77.16965652080000
  -2.182356958440e2 -52.76123002670000   6.22385854230000  15.85560546440000 -35.11914163820000 -58.36808666440000 -31.92222595050000  72.98210864980000 195.87027490100000
 258.07665625800000  -2.529283525350e2  -1.677774458790e2 110.52962132400000  71.04306014150000  -2.233165820800e2 -62.59467329700000
 145.91949723100000  -8.68233662676000  -4.07922729527000 -10.15730826750000  22.50671949400000  38.03433410840000  17.95787783660000 -66.82519381930000  -1.890207631860e2
  -2.703054549370e2 260.90796865400000 158.57744919200000 -94.22685680630000 -58.13911249090000 137.34751180400000  44.58829923080000
 -82.34497946900000  71.05558085120000   2.54356267561000   6.22119345925000 -13.77043362160000 -23.59199429770000 -10.24766047560000  48.99187644480000 146.90948166200000
 227.98525022300000  -2.332521218900e2  -1.486699629220e2  87.68019831820000  49.91500408650000 -64.31061192030000 -29.89050694280000
  40.29618769540000  -1.106177197480e2  -1.43768597934000  -3.47075182089000   7.67378516028000  13.30170063290000   5.67363178584000 -29.63969434690000 -93.43558411490000
  -1.540158932030e2 167.50417744100000 116.61385627100000 -75.31031013610000 -43.95978575320000  26.84045461290000  21.09870002280000
 -14.17839747750000 104.13695715000000   0.68288621231800   1.63364946180000  -3.60948727156000  -6.32182668166000  -2.78567451597000  14.24973735180000  46.94455572740000
  80.61086846240000 -91.54488679060000 -68.11856131990000  47.25147304950000  28.55327580480000 -20.08031993750000 -14.30313107030000
  -1.58328327714000 -58.27393501000000  -0.23842419413000  -0.56688346696100   1.25216607894000   2.21265744897000   1.02978590898000  -4.89136071946000 -16.76093567120000
 -29.59626251610000  34.57768202450000  26.83021243670000 -19.20704676040000 -11.30610337540000  17.69514738380000   6.98757800881000
   3.54663826609000  14.84752519920000   0.04490161556040   0.10632403152300  -0.23483199392500  -0.41775448456600  -0.20405113773700   0.90036573821300   3.18386557896000
   5.73329337447000  -6.83964545539000  -5.48032628840000   4.03612495075000   2.42256470864000  -7.00391579425000  -2.66540119336000
   13   13
 -11.49588043730000  -4.17928462799000  -1.93762964890000  -0.47644611684700  -0.19872905179800  -0.09114777285940  -0.01243984818660  -5.86331580938e-4  -7.47425536839e-6
  -1.37531179713e-7  -3.26360401120e-9 -38.6950406223e-13   2.14909839694000
0.23862392982000
0.31020101612500
0.43095851591600
0.61415832005400
0.88393442780700
1.28485641118000
1.86762269396000
2.71471154024000
3.98522707974000
5.85035818415000
8.58839162688000
1.260785552180e1
1.850847373580e1
  -1.11237180723e-4  -7.78288790848e-4   0.00146759457372  -0.00190457285438  -0.00492861129585   0.00562243084330   0.01012334416780   0.02691477935190  -0.10291153461200
   6.83561254181000  20.07960518600000  44.53051819550000   0.00300010574218
  -2.55093062924e-4  -3.88642518387e-4   0.00131795969755  -0.00150802842909  -0.01146100910770   0.00850236790082   0.01513852647400   0.06135995031660   1.45208555672000
 -35.68517094820000 -88.57557332970000  -1.372343045370e2   0.00375821435192
   0.00675976864894   0.03248766686750  -0.06746217951080   0.08535830371000   0.30158538352100  -0.29510335504800  -0.52825639859700  -1.60037767251000 -10.36071762440000
 106.83093432500000 187.16355693000000 216.32600517800000  -0.14923343823500
  -0.04791430797890  -0.23848576422900   0.49018454404400  -0.62147910833100  -2.13880005032000   2.11669672139000   3.77495921489000  10.95703215410000  48.56883246720000
  -2.114946054190e2  -2.666210695010e2  -2.518387144300e2   1.07637258266000
   0.22183455320200   1.06155651534000  -2.20676122220000   2.78792196637000   9.90648946000000  -9.64626700799000 -17.00576792060000 -45.89185304570000  -1.170747880160e2
 301.11728099000000 293.91686552700000 243.49087009000000  -4.88972512050000
  -0.74764658838900  -3.14250673891000   6.79741890851000  -8.49250001813000 -33.27441126550000  30.84837179030000  51.98886515650000 102.35840315100000 183.01091195200000
  -3.406457403740e2  -2.754845498910e2  -2.097638299750e2  15.51733198070000
   1.84473784292000   5.66387727572000 -13.69464792790000  16.59845382600000  80.43364498640000 -66.70277371640000 -92.37848568760000  -1.464546434810e2  -2.129503153640e2
 325.22741056500000 230.84803642200000 166.73970353900000 -33.69292598100000
  -3.45145812672000  -4.22357791363000  16.22139719280000 -17.75119311200000  -1.394176445730e2  90.04908896440000 106.39053965700000 151.17535051600000 195.35553979300000
  -2.638080237760e2  -1.713340389860e2  -1.196852765210e2  49.18802828800000
   5.48603135910000  -6.76286376867000  -6.00775444772000   1.82752196893000 177.55492421900000 -84.59261822560000 -90.76384230730000  -1.232303278970e2  -1.486719824780e2
 185.49229088900000 113.33254775700000  77.45436147810000 -49.08066552160000
  -7.92357971961000  26.09715818380000 -14.23138186480000  15.79440164050000  -1.672958697060e2  61.68457810410000  62.29377872210000  83.02305060990000  96.20786196730000
  -1.141913006130e2 -67.00671592310000 -45.15624243350000  34.41815321270000
   9.65382654916000 -39.10710092760000  23.95449153780000 -18.45865654670000 111.99605403000000 -34.78732889890000 -33.58058788270000 -44.24212132800000 -49.99980721390000
  57.48406012130000  32.84535470910000  21.93505056300000 -20.37181649500000
  -7.63468407630000  29.22013299340000 -17.21400994090000  10.62796786520000 -48.18040929640000  13.37053433080000  12.71349092710000  16.69795212820000  18.58200173560000
 -20.92968636680000 -11.75124498330000  -7.80173811729000  13.42910041280000
   1.74847886224000  -9.19485812615000   5.64254060862000  -2.95244568038000  10.06087020440000  -2.51792363352000  -2.49928313958000  -3.32950929178000  -3.67544929543000
   4.08553704615000   2.26758563690000   1.49968342218000  -5.83033322990000
Spectral Representation Operator
End of Spectral Representation Operator

/Si.LANL2DZ_NL.Wadt.3s3p.2s2p.ECP.4el.
W.R. Wadt, P.J. Hay. J. Chem. Phys. 82 (1985) 284-298. doi:10.1063/1.448800
SILICON (3s,3p) -> [2s,2p]
     4.0   1
* s-type functions
    3    2
          1.22200000
          0.25950000
          0.09310000
  -0.57073390   0.00000000
   1.28238260   0.00000000
   0.00000000   1.00000000
* p-type functions
    3    2
          2.58000000
          0.29840000
          0.08850000
  -0.07772500   0.00000000
   1.01978700   0.00000000
   0.00000000   1.00000000
M1
  0
M2
  0
COREREP
 1.0
PROJOP
    2
   16   16
  -3.599341893780e2   1.7049873087e-14  42.1854964354e-12   2.67698699006e-8   1.10514773757e-6   4.18199272530e-5   0.00463227601777   0.16083295164500   1.38892002590000
   4.61910943623000   9.51867210871000  12.77607034540000  28.30137632330000  87.30407676650000 269.99500903300000   1.097684771760e3
0.09982781981110
0.15030392334000
0.23394865987800
0.36776097617600
0.57811032415400
0.91780547481500
1.45710404123000
2.31329213567000
3.67257268769000
5.83056067084000
9.25657315109000
1.469569589250e1
2.333082386330e1
3.703991604880e1
5.880441209220e1
9.335763280210e1
  -6.40360525336e-4 -24.46138636750000  19.73653021260000  11.46012295630000  -5.41971309833000   0.20194596214400   0.01414725719150   0.00482029624946  -0.00205594974672
  -0.00130840664703   0.00161398546998  -3.56457030141e-4  -3.48752487867e-4  -4.02102128588e-4  -5.10674356082e-4  -9.59138849899e-5
  -0.00046509178594  73.85640538560000 -85.53438859980000 -58.38316449540000  30.22402507850000  -1.65316723714000   0.03549258708490   0.00497295051099  -0.00193038557915
  -0.00122230701553   0.00168279301958  -5.40671151429e-4  -0.00021558638736  -2.75597591517e-4  -3.14028948688e-4  -7.27248192767e-5
   0.02683586824560  -1.108659050910e2 169.50988411200000 153.10516712700000 -93.56216784570000   8.20886921344000  -0.81967905155100  -0.21588605168900   0.09047417842690
   0.05754599709040  -0.07275148194370   0.01776333163200   0.01423689500240   0.01668678499640   0.02083562039610   0.00404984373347
  -0.18519510226000 120.16887139400000  -2.189886964940e2  -2.567081214180e2 208.89113750500000 -31.69942539310000   5.24314655332000   1.47102359422000  -0.62045283867800
  -0.39494596439500   0.49812846902700  -0.12044048072700  -0.09853302898820  -0.11528516029100  -0.14425310619300  -0.02792217359980
   0.84626262148600  -1.091391344850e2 217.51357839500000 307.06329024700000  -3.398924642040e2  96.11989112580000 -22.65787922630000  -6.68916103775000   2.84008316010000
   1.80997091550000  -2.28739502309000   0.55672811307300   0.44936993955400   0.52645242716700   0.65809125459300   0.12764517835500
  -3.23171142891000  90.79319279900000  -1.878838060360e2  -2.969217178930e2 429.26216701000000  -1.968437314860e2  77.81080935780000  25.36138989370000 -10.91983160090000
  -6.97732491222000   8.86877999287000  -2.20149687483000  -1.70564023247000  -2.00603721824000  -2.49874985621000  -0.48819246595200
  10.30419204780000 -73.39834644500000 153.85995925500000 257.72343254000000  -4.537750094620e2 286.15127002400000  -1.673311365040e2 -78.13238667450000  35.25706710170000
  22.71042566430000 -29.24837891760000   7.57053274166000   5.36122646230000   6.36296163081000   7.85679447852000   1.56232236056000
 -25.49748187860000  57.84686396010000  -1.217656582360e2  -2.098304641120e2 421.98530254600000  -3.244952573760e2 243.79485512300000 152.17694059600000 -87.30938552570000
 -58.30520757900000  77.40935751220000 -21.67732506990000 -12.83348833430000 -15.55562711980000 -18.82103814820000  -3.89763061856000
  46.98954162230000 -44.41764773070000  93.63330877360000 163.66992878900000  -3.583725539820e2 310.60096205200000  -2.709001831200e2  -2.000340763850e2 139.98064592900000
 111.57024222700000  -1.600011139510e2  50.99019169680000  21.82859333340000  27.85842597490000  32.16097735520000   7.30513754952000
 -63.45108012230000  33.01394432990000 -69.63607572440000  -1.226678673810e2 283.23706751100000  -2.635850825100e2 250.24982973000000 199.43503457400000  -1.526070872590e2
  -1.452664368120e2 257.40852710400000 -99.70333142610000 -23.49940410920000 -34.91092153310000 -35.40051449580000 -10.22256364070000
  60.82662257510000 -23.42451447270000  49.42387994310000  87.45287429430000  -2.086738869770e2 202.60519931300000  -2.017678172270e2  -1.651494142170e2 127.20714972100000
 134.50638425800000  -3.178293567040e2 161.40302786200000   7.18102228977000  26.22008142370000  12.88185833400000  10.64972871390000
 -38.26121761440000  15.47882552440000 -32.66445344640000 -57.95295192950000 141.12482192900000  -1.405671201760e2 143.96491948700000 119.23294372100000 -90.68139704510000
  -1.004545714770e2 306.29988425500000  -1.959436779430e2  24.64379356410000  -1.11669671220000  37.71349105390000  -8.30121634677000
  15.65728667800000  -9.13385980688000  19.27671630330000  34.25635314010000 -84.47828273390000  85.47047050710000 -89.10418688960000 -74.86762028260000  57.91876125260000
  66.68861412120000  -2.342234983810e2 169.23727470600000 -40.61324448060000 -22.63823188800000 -90.57384004740000   5.33320467007000
 -12.30970257600000   4.47802038786000  -9.45125430149000 -16.81247430330000  41.78656378110000 -42.68839286750000  45.03073561960000  38.49383154450000 -31.02164107080000
 -37.34473606220000 136.65407932100000  -1.022143776890e2  29.21215607940000  23.57146976520000 103.22818666800000  -3.22324665026000
  16.24449179800000  -1.59607673718000   3.36877640268000   5.99629331958000 -14.97625031600000  15.39140799770000 -16.35773510050000 -14.15755893150000  11.76038099030000
  14.56768054760000 -53.69700650580000  40.41806577360000 -12.15764364320000 -11.99954379260000 -64.36740101720000   0.44769660385300
  -8.06381398268000   0.30267549779000  -0.63885904193900  -1.13758487848000   2.84984158161000  -2.93962972098000   3.13719875701000   2.72408269836000  -2.26806467066000
  -2.81537393359000  10.52710520890000  -8.06019986734000   2.66392327952000   3.24447932399000  17.58489039550000   1.63962521041000
   15   15
 -66.88272315020000  73.0149901916e-16  29.3504880422e-12   2.04127886371e-8   5.05234684028e-6   5.26430963587e-4   0.02161327028610   0.28742287016600   1.44177775251000
   4.42190812120000   6.54536212141000  11.70214717020000  26.08540767850000  57.36667568040000 295.09938178100000
0.19283362885600
0.26429704304300
0.38035675490900
0.56587626310300
0.84188315577400
1.27484062084000
1.93045626034000
2.92323707933000
4.42657790159000
6.70304576299000
1.015023873960e1
1.537022871610e1
2.327471666870e1
3.524426643320e1
5.336942804060e1
  -0.01049005005730  39.71252130680000  16.58433003780000   5.16212966985000   1.34828717369000   0.32758345073300  -0.09213837098740  -0.03549500545210   0.01870144263110
  -0.01458444304340   0.02291162913770   0.00760465494724  -0.00534303536979   1.81032199515e-4   9.84605325722e-4
   0.07259201408770  -1.304762337740e2 -82.29741275200000 -30.86034663350000  -8.82313127262000  -2.23122681701000   0.63552595082300   0.24544584507000  -0.12936830633200
   0.10091185009100  -0.15880049602000  -0.05256371267460   0.03691466261940  -0.00128030505602  -0.00681827593793
  -0.30457893684800 211.84970675300000 181.10330112700000  97.42956405660000  33.26696132550000   9.08484932348000  -2.65020132400000  -1.02841172441000   0.54243809958000
  -0.42329440547600   0.66811185168000   0.22009269513200  -0.15444355921600   0.00557612021101   0.02864299058300
   1.10319503751000  -2.516474825550e2  -2.649958177500e2  -1.956418455200e2 -96.61399607090000 -30.96452839760000   9.48211645051000   3.71488689091000  -1.96226295750000
   1.53241966379000  -2.43142939213000  -0.79425749966700   0.55653494714600  -0.02152244457220  -0.10397442331900
  -3.45665438751000 247.69930038500000 296.36959670000000 271.90383540100000 184.84643435200000  84.98731118950000 -28.94812212450000 -11.57572175730000   6.13357664382000
  -4.79676579149000   7.67912689682000   2.47265305196000  -1.72808300556000   0.07470840449310   0.32704210429100
   9.97559016106000  -2.166091274230e2  -2.807539659630e2  -2.980041263330e2  -2.563750339230e2  -1.639137659410e2  77.54801861350000  32.91342854800000 -17.59905196680000
  13.80964640410000 -22.49451225710000  -7.04320820686000   4.89610431251000  -0.25762879891700  -0.95109005570600
 -24.84475300090000 181.58095454100000 246.77317595300000 286.50029316300000 287.20152442600000 230.42744116900000  -1.445455715840e2 -77.77100547590000  43.09158650470000
 -34.16158030530000  57.59875567790000  17.06351629680000 -11.72981408160000   0.85419886706400   2.40525966469000
  49.69183085600000  -1.453954077890e2  -2.032892734270e2  -2.492008652080e2  -2.748426603440e2  -2.545746867060e2 190.88969849000000 124.51533001600000 -81.06833383600000
  66.82471224850000  -1.206950319820e2 -32.12608128640000  21.58226417720000  -2.54809184781000  -4.95131532652000
 -78.12181557400000 110.98738310200000 157.89141389000000 200.04943883700000 233.94493854300000 236.39512768000000  -1.953166882600e2  -1.392970281290e2 102.33964045400000
 -97.55610125240000 202.87931425100000  43.81409574910000 -27.97018165020000   6.56828624910000   8.19277005699000
  97.24257553980000 -79.94949873090000  -1.149632011950e2  -1.486423085170e2  -1.801767859950e2  -1.917547871050e2 166.06025494500000 119.38479896800000 -88.31962986880000
  97.26251601270000  -2.727011067290e2 -37.07961148760000  19.85676383860000 -14.36392892120000 -11.11747426360000
 -98.70812963530000  53.16485349840000  76.96410162420000 100.77264496100000 124.88710002400000 137.11929803600000  -1.213821547150e2 -84.64949285520000  56.79868280510000
 -66.51251860400000 289.12279988400000   5.27496758285000   8.44361241292000  26.18664363500000  12.83994648240000
  86.72236087450000 -31.37153468330000 -45.60856571990000 -60.19171882890000 -75.63423398300000 -84.64921303770000  75.80201858000000  51.11706847350000 -29.65757933430000
  33.15006204670000  -2.349719615690e2  24.83526840780000 -43.37581196730000 -38.13250047590000 -12.93269666360000
 -68.58220324870000  15.33067353030000  22.34844200340000  29.64237821820000  37.57353556900000  42.55930053410000 -38.36515102780000 -25.18328383610000  12.54958882780000
 -11.94171620700000 138.42464567600000 -29.38151467520000  52.35074273700000  39.97874284390000  10.51809827400000
  42.57520973010000  -5.45312119522000  -7.96310519489000 -10.59579201160000 -13.50518690510000 -15.41116399460000  13.92624284600000   8.86236106208000  -3.61157509932000
   2.18509438181000 -52.73623969470000  16.64659912240000 -31.21839326990000 -23.28914357720000  -4.85223718520000
 -13.64061503290000   1.03950097424000   1.51965207657000   2.02619184169000   2.59158306164000   2.97036845275000  -2.67959546200000  -1.62974937558000   0.45720449602300
   0.13961354601500   9.78396772761000  -4.35528968887000   8.16289619481000   5.51765856286000  -0.28817785059200
   14   14
 -23.64749336210000 -15.50568437020000  -9.91105569294000  -4.30741463922000  -1.46695762919000  -0.45422713360000  -0.12002975864200  -0.01784063890530  -9.74959236378e-4
  -1.91706217646e-5  -2.39498481032e-7  -1.97554181989e-9 -30.9365900253e-13  14.65639767830000
0.36124178572700
0.46959904266000
0.65240826425600
0.92974601676700
1.33814765102000
1.94508499096000
2.82730804718000
4.10967686800000
6.03305187329000
8.85658801772000
1.300157084060e1
1.908645225280e1
2.801912661680e1
4.113239306960e1
  -0.00178140572928   0.02711138354210   0.01303642333500   0.00730680619784   0.01641238111370   0.02494427587240  -0.04109904025150  -0.08861844997660   0.26799081954200
   1.20125363804000  -6.02868054683000  20.02788809360000 -45.10523341850000  -0.03151107984640
   0.01109762309180  -0.16840434663500  -0.08091495030750  -0.04542664977290  -0.10197153906600  -0.15493961025600   0.25517241966600   0.54943244766700  -1.64853344500000
  -7.10901826028000  32.11722514920000 -89.37801307300000 139.73797170700000   0.19571985121900
  -0.04616226671740   0.69992661611600   0.33628657375600   0.18875244275700   0.42367154503600   0.64357263189400  -1.05923373086000  -2.27471729587000   6.72193673185000
  26.90555237010000 -98.72935885380000 191.62978064900000  -2.220412804070e2  -0.81335034744100
   0.16545463762600  -2.52872759952000  -1.21825199417000  -0.67900174633500  -1.52731107301000  -2.32002978249000   3.81527930455000   8.15217295016000 -23.37176101810000
 -80.73864922010000 196.59380062400000  -2.776011124580e2 261.34466994800000   2.93789102649000
  -0.51808154736900   8.15890247658000   3.96710801482000   2.16061923204000   4.89615296354000   7.44200622538000 -12.21952574320000 -25.78874581030000  68.50120923130000
 161.91639434000000  -2.785642900740e2 312.04923039000000  -2.565196232720e2  -9.47624623159000
   1.34954903155000 -22.99238884030000 -11.42861344430000  -5.88681429373000 -13.58767833130000 -20.67541988950000  33.73119368250000  68.03768213390000  -1.356883941220e2
  -2.334449723910e2 314.05258250500000  -2.997810722640e2 225.84483687500000  26.69726026190000
  -2.57391281313000  52.30692806400000  27.09812203090000  12.50574446470000  29.95107922410000  45.45674186090000 -71.76391957670000  -1.191101217260e2 188.56726421800000
 263.82124870400000  -3.021374987240e2 259.70790529800000  -1.853069387000e2 -60.75939648220000
   2.93605001908000 -91.51814473270000 -50.80078842060000 -19.13240738890000 -49.12918086350000 -72.74239423240000  99.69376283770000 142.17394782300000  -1.974855254770e2
  -2.438147868530e2 251.80647453600000  -2.022316614010e2 139.45932431600000 106.66574624200000
  -0.03726981819480 125.95451005000000  78.28466049770000  19.48763203830000  58.38231429790000  77.73130832840000 -95.52707300510000  -1.290065813760e2 169.48637955900000
 194.30521193600000  -1.876294491570e2 144.08596464700000 -97.19193837090000  -1.487659326700e2
  -8.15781742130000  -1.349342071100e2  -1.001939208170e2  -7.58161133419000 -43.52917765800000 -56.12966676130000  69.46015723760000  96.82470727090000  -1.259118290880e2
  -1.384314593350e2 128.12976709200000 -95.61153276740000  63.59727038110000 166.08016082400000
  19.82351780840000 105.21190002600000 103.14019744700000 -12.96653515640000  17.23541959000000  28.52231950600000 -40.41219631770000 -60.75242392270000  79.58327504180000
  85.39523405770000 -76.94049565410000  56.36387520810000 -37.15667170870000  -1.452100548420e2
 -26.64190556070000 -52.67687525800000 -79.54509357420000  21.01364128450000  -1.47610141468000 -10.66817086770000  18.95892610520000  30.76310227890000 -40.65976378570000
 -42.98117488970000  38.06177726150000 -27.55209334150000  18.05845581900000  97.41494142170000
  20.15646193210000  12.56581149740000  38.30636645630000 -12.96248063780000  -1.87082567902000   2.78524138181000  -6.51280308672000 -11.22716203070000  14.93763211480000
  15.64016563730000 -13.69585261580000   9.83762851262000  -6.42374450208000 -47.52356502850000
  -5.87919587566000   0.51217455449300  -8.35032661666000   3.46554257232000   0.81868590954100  -0.34176617177600   1.19712635385000   2.18730308927000  -2.93120615224000
  -3.05120244626000   2.65256333509000  -1.89571205919000   1.23483298547000  13.08689517770000
Spectral Representation Operator
End of Spectral Representation Operator

/P.LANL2DZ_NL.Wadt.3s3p.2s2p.ECP.5el.
W.R. Wadt, P.J. Hay. J. Chem. Phys. 82 (1985) 284-298. doi:10.1063/1.448800
PHOSPHORUS (3s,3p) -> [2s,2p]
     5.0   1
* s-type functions
    3    2
          1.51600000
          0.33690000
          0.12110000
  -0.58620890   0.00000000
   1.29943760   0.00000000
   0.00000000   1.00000000
* p-type functions
    3    2
          3.70500000
          0.39340000
          0.11900000
  -0.06914720   0.00000000
   1.01619880   0.00000000
   0.00000000   1.00000000
M1
  0
M2
  0
COREREP
 1.0
PROJOP
    2
   17   17
  -9.955015257190e2  -4.69643145758e-8 -12.7352090728e-13  25.1216328529e-12   3.11699433328e-6   1.78903391257e-4   0.01045438875970   0.27206016253100   1.96737496177000
   5.83334599671000  12.52066540680000  25.54873021240000  55.43883276060000 141.32856433600000 230.08769790100000 851.97997620000000   2.084012878570e3
0.12500000000000
0.18820395409800
0.29294020985400
0.46049409983000
0.72388429053100
1.14923559954000
1.82452151613000
2.89660254532000
4.59863379597000
7.30077132040000
1.159067328200e1
1.840130326440e1
2.921383025720e1
4.637975180530e1
7.363229534040e1
1.168983167450e2
1.855872670370e2
  -0.02423502855230  -9.23290859681000 -20.17121963190000  24.84379583350000  -6.20425890948000   1.76507583284000  -0.32032985206700  -0.08962041692440   0.03729532405300
   0.02069020153630   0.01498122444330   0.01121679583230   0.00761949609552  -0.00660855428052   0.02414102651780   0.02064213666970  -0.00547887267324
   0.14897109146800  48.02322179580000  55.69730156730000  -1.023578709870e2  33.99313492930000 -10.29463901900000   1.94635475313000   0.54984071154300  -0.22912932263100
  -0.12715198761100  -0.09208636252830  -0.06896038941740  -0.04686170783830   0.04055888766600  -0.14833309530400  -0.12690777512400   0.03367385780420
  -0.54755742885500  -1.292374797450e2 -74.94027593600000 199.24253896600000  -1.019882544740e2  34.54447490280000  -7.01227521742000  -2.01441893763000   0.84145805552100
   0.46718709795400   0.33844752049600   0.25351682904200   0.17235706976800  -0.14878929899800   0.54493797537000   0.46656559924200  -0.12375106150300
   1.64243012257000 217.71395453900000  73.33605799540000  -2.578227065630e2 216.26323160600000 -88.91062098720000  20.33875102310000   6.00989268730000  -2.52069707571000
  -1.40059500472000  -1.01499629181000  -0.76048132965400  -0.51721917383200   0.44567177616000  -1.63396782697000  -1.39975597931000   0.37115043278400
  -4.43114595740000  -2.571472397630e2 -62.18300705710000 258.40778759100000  -3.293968533840e2 184.89954813600000 -51.77639107770000 -16.06619589450000   6.78738345371000
   3.77583953916000   2.73710758181000   2.05087817130000   1.39456111708000  -1.20404913368000   4.40983448847000   3.77619518437000  -1.00141865440000
  11.75884954380000 243.80218323600000  50.07451743110000  -2.254267523540e2 386.61381054600000  -2.993690948650e2 121.89340268900000  41.84291843780000 -17.95029542880000
 -10.00843406950000  -7.25546557696000  -5.43341827650000  -3.68765907793000   3.22481228621000 -11.73001504370000 -10.01258541010000   2.65931173902000
 -30.13811540490000  -2.081585042200e2 -40.16440960380000 186.37814106100000  -3.817459537180e2 380.57675256100000  -2.195824532990e2  -1.015318870800e2  45.58381289920000
  25.58501508290000  18.54607002240000  13.86318071670000   9.35495435822000  -8.48845973162000  30.27319631660000  25.59485089280000  -6.83033239112000
  68.05996971270000 168.25406048500000  31.82472195110000  -1.492157958530e2 336.64944909700000  -3.991484042440e2 294.25911836200000 178.02911433200000 -98.51636935130000
 -57.08143582420000 -41.54183570340000 -30.96726420790000 -20.63838118380000  20.27399827200000 -69.39340084700000 -57.44522587820000  15.49704820080000
  -1.272420910990e2  -1.318540189750e2 -24.80040948460000 116.70329173600000  -2.769745416140e2 366.41442271200000  -3.142766236090e2  -2.228937095780e2 147.08943130800000
 100.28264259200000  75.37976543050000  56.35987021720000  36.78146049550000 -41.70956727700000 133.21530655200000 106.06332460000000 -29.22176203340000
 194.21343134500000 100.71320187200000  18.91541132020000 -89.13881414010000 217.29969556800000  -3.071277137340e2 287.15537328400000 216.89454794300000  -1.504690283500e2
  -1.181149798900e2  -1.037594344840e2 -80.32151759490000 -50.87831766170000  73.61713219190000  -2.121624081070e2  -1.579185523310e2  45.25219278310000
  -2.436362121430e2 -74.57517838130000 -14.00130207130000  66.02551428900000  -1.633349861010e2 240.10844861600000  -2.352962324480e2  -1.783099071080e2 113.83471820900000
  88.21457911290000  92.93342834420000  83.98070864060000  51.24312706720000  -1.133135482230e2 283.99848094300000 188.15933052000000 -58.14025226000000
 252.24629385100000  52.78244614170000   9.90907360217000 -46.74446541950000 116.60590065200000  -1.754785656640e2 176.43694128100000 130.95968785800000 -69.96802052070000
 -40.15714550980000 -44.92214231610000 -50.33706620830000 -28.52733578210000 153.35099649400000  -3.230968317730e2  -1.733334241160e2  62.57719098870000
  -2.147377085360e2 -34.82306062640000  -6.53749387990000  30.84573005230000 -77.32082721980000 118.01815532200000  -1.204580859080e2 -87.67553718680000  38.64228966990000
   8.81895043224000   3.21240681424000   4.34632080134000 -11.20388974690000  -1.787759339770e2 311.24634280700000 108.45611978800000 -56.49257868110000
 151.30401777800000  20.52800665900000   3.85388585051000 -18.18582132700000  45.71713715830000 -70.38983237490000  72.55367400710000  52.41325023200000 -20.57556046280000
   1.05195300552000  10.05155496400000  15.82759420710000  33.57951461140000 168.20585153600000  -2.475643718760e2 -21.19382627330000  42.47755726150000
 -92.05982308780000 -10.05781843040000  -1.88826836984000   8.91102089172000 -22.43944128900000  34.73718224520000 -36.05230361950000 -26.11183113980000  10.03137857270000
  -1.31605840070000  -7.08952134317000 -12.21995526490000 -25.85773903390000  -1.124413529990e2 152.98535429600000 -37.05998265550000 -25.48449231890000
  47.31145342240000   3.58343311762000   0.67276777398400  -3.17502238413000   8.00343496912000 -12.43149478420000  12.96174196030000   9.43183541029000  -3.66520916405000
   0.44283374692300   2.64845916780000   4.79362283631000  10.63364136880000  46.87291227370000 -62.53290538160000  38.45936417700000   9.61851024717000
 -14.04404500400000  -0.67938405989000  -0.12755130603800   0.60197388595300  -1.51839135396000   2.36337176127000  -2.47076715718000  -1.79997627371000   0.69541003496600
  -0.09775263319360  -0.54283302074800  -1.00084783727000  -2.24290781993000  -9.56130202536000  12.02988751690000 -12.72301319410000  -0.29642608802600
   16   16
  -1.113825297940e2  35.3338033939e-13   2.31173369381e-9   1.24461220258e-7   6.13828014797e-6   4.72878808676e-4   0.01625958108100   0.18422211753300   0.84714591650400
   2.63947476466000   7.28258123008000   8.96021327918000  19.48560978800000  59.51234680360000 119.53407992900000 384.61514790200000
0.17681374938300
0.24234025677100
0.34875817220000
0.51886543005700
0.77194272699000
1.16893174377000
1.77008134646000
2.68038573664000
4.05883476008000
6.14618238876000
9.30699577314000
1.409332897110e1
2.134114233300e1
3.231630773770e1
4.893570032490e1
7.410199165450e1
  -0.02040401365870 -31.71362496370000 -26.00583309730000 -14.16260521880000  -2.79617229831000  -0.55888576355800   0.15843420393300  -0.06281171946010   0.03399651076230
  -0.02380907283350   0.01918074104830  -0.03642712641260   0.01328620520370   0.01187378523350  -0.01078898905960   0.00224751493852
   0.12517431733200  94.71446027820000 105.93936860300000  67.64278970150000  15.56369537700000   3.36237072621000  -0.96876954720000   0.38510595343600  -0.20852379649100
   0.14605253775200  -0.11767485991000   0.22368013669500  -0.08150183985120  -0.07283414688080   0.06616330812800  -0.01379071639460
  -0.46403932127500  -1.375412150050e2  -1.995734187270e2  -1.674662612960e2 -49.40486968090000 -12.05459567250000   3.57031807513000  -1.42610465446000   0.77276661840100
  -0.54135548535700   0.43627893969000  -0.83088384626200   0.30208771500400   0.26993069498600  -0.24506640778100   0.05114708232410
   1.50918756761000 146.31785440600000 256.43815535500000 285.52807841500000 123.62290554900000  36.84931148800000 -11.48112021270000   4.62844158180000  -2.51159136191000
   1.76009754465000  -1.41917117092000   2.71339269840000  -0.98212251722700  -0.87736462507300   0.79556440288300  -0.16650431569300
  -4.38170211654000  -1.320170727450e2  -2.592197412030e2  -3.607528004970e2  -2.189440604190e2 -94.14641096270000  32.55247518380000 -13.37948423880000   7.28218870064000
  -5.10700509983000   4.12169235270000  -7.93780970010000   2.84947657684000   2.54435310517000  -2.30163694433000   0.48431319026800
  12.02307387440000 108.50538578200000 227.49015284400000 373.32027040600000 292.47608670900000 176.12970684500000 -83.33077650490000  36.25202854400000 -19.90916819890000
  13.99147570370000 -11.31555884330000  22.10848800110000  -7.80729791900000  -6.96465415787000   6.26897542650000  -1.33399798342000
 -29.15593673780000 -87.83763626850000  -1.906338389830e2  -3.484914456450e2  -3.231845538990e2  -2.457848568430e2 153.18637885000000 -83.71177728830000  47.65962485340000
 -33.76454150840000  27.44998004430000 -55.14927539470000  18.87196627710000  16.80470337290000 -14.97258935900000   3.25971484683000
  57.99867145660000  69.51451629970000 153.69618232000000 300.71967052800000 310.20959613500000 273.48808027300000  -2.029965680790e2 134.12198556300000 -89.83374776980000
  65.95418296670000 -54.46746713770000 115.26961876400000 -37.25898995830000 -33.08150672340000  28.87777059280000  -6.57925880184000
 -92.31651306910000 -53.58772337940000  -1.197299229230e2  -2.443493385570e2  -2.691851668460e2  -2.594755390440e2 211.35543803600000  -1.523729284890e2 116.36973945600000
 -98.29486627010000  85.36737821150000  -1.988871403260e2  58.18649297150000  51.47748869320000 -43.06929131320000  10.75975991870000
 116.78317068100000  39.91650231790000  89.73827159120000 187.99969277100000 215.64529003500000 219.14567578000000  -1.861433371080e2 134.29858777800000  -1.045720912760e2
 100.58280894000000  -1.018825678190e2 285.41242655500000 -69.97326932570000 -61.74949695500000  46.69467201890000 -14.33607695870000
  -1.160073457210e2 -28.30551570690000 -63.87588208290000  -1.360276001030e2  -1.599771249390e2  -1.677740053580e2 144.88019930300000 -99.93939130160000  70.57376928800000
 -69.21933685130000  84.47675627600000  -3.425826881270e2  60.22486206580000  53.23829215610000 -28.46562745280000  15.79855338420000
  88.89610866590000  18.63396609130000  42.14950464680000  90.69091496490000 108.33719821300000 115.83217616900000  -1.007714398370e2  66.25167701710000 -39.84745672070000
  34.04798746780000 -48.30850905220000 339.83920853900000 -29.50355409640000 -25.21356128310000 -12.43390587920000 -14.90458872980000
 -54.49663352170000 -10.92471588180000 -24.74801478570000 -53.59871282750000 -64.66335003830000 -69.99157619230000  61.24242337470000 -39.19906911730000  20.70837525180000
 -13.99412023110000  21.94562408590000  -2.691444051910e2   4.06716029302000  -5.58849584928000  56.54693660750000  12.87255134620000
  33.42395270000000   5.31659564073000  12.05512348650000  26.21790133940000  31.83003825280000  34.72927389710000 -30.55128639360000  19.41232107820000  -9.68159405539000
   5.51496964997000  -9.25530891594000 159.52419971800000   3.42388084175000  16.65548134150000 -71.64655597720000 -10.14960898070000
 -22.07353785980000  -1.88607526099000  -4.27914868290000  -9.33132046186000 -11.37443488520000 -12.47419059190000  11.01315401770000  -6.97151846340000   3.35450189120000
  -1.64962777938000   2.83792610526000 -62.73618428200000  -2.93567956845000 -11.82322710410000  46.65336464660000   5.23025502281000
   8.39933106921000   0.35891594495900   0.81462636879000   1.77945910440000   2.17463810806000   2.39233781831000  -2.11392854955000   1.32221730623000  -0.59150051920900
   0.19533881412300  -0.30527469668800  12.27404866240000   1.10469682525000   3.89310918287000 -13.17457188490000  -0.08475122655310
   15   15
 -27.32468265780000 -11.24031944700000  -8.01153407215000  -3.04669987939000  -1.07433894646000  -0.32925717694100  -0.08509234326730  -0.03885108688800  -0.01160962136100
  -0.00052705673898  -9.69124681723e-6  -1.04495804276e-7 -42.9395402733e-11   5.51231291805000  14.11164486650000
0.37180678899000
0.48333310005400
0.67148882390700
0.95693769306100
1.37728358396000
2.00197162503000
2.90999648447000
4.22986991110000
6.20949661266000
9.11561088000000
1.338181931630e1
1.964466129260e1
2.883858376670e1
4.233536538390e1
6.214879262770e1
  -0.44565648731700   1.78510741291000   0.61565921532700   0.39076241884000   0.91034925510600  -1.46980015820000  -2.58356663046000   5.04053059570000  -3.12527483269000
  -7.81054064822000 -16.63444298210000 -29.16239616430000  35.49605096400000   0.37627823634300  -1.83026025620000
   2.00903806841000  -8.03341804938000  -2.76310833783000  -1.76792181400000  -4.10770259406000   6.62863450564000  11.66116670090000 -23.06730536750000  13.92216783570000
  34.37487827280000  69.73788323780000 108.57040072800000  -1.006256530320e2  -1.65460943000000   8.24388499731000
  -5.23904274418000  20.87877906680000   7.14326634950000   4.64257278738000  10.73170707780000 -17.30101302970000 -30.48531640430000  61.89577879280000 -35.47359405260000
 -85.52863858180000  -1.575896384420e2  -1.965566065440e2 143.06848829100000   4.10561069128000 -21.46254356190000
  10.49085298260000 -41.54613891380000 -14.07133371170000  -9.41869133813000 -21.56819727880000  34.71145677730000  61.35231196350000  -1.304596719840e2  68.00229859950000
 156.77693464200000 242.60126147600000 245.49684268100000  -1.510705505790e2  -7.44771161499000  42.84555159940000
 -16.72106264330000  65.38738709650000  21.68798678970000  15.40861341690000  34.64940056810000 -55.59338778410000 -98.88491603160000 228.54263225100000 -99.30150287560000
  -2.109811746970e2  -2.797268972250e2  -2.438177764260e2 135.66152049100000   9.45683005243000 -67.87255147200000
  20.95255939580000 -79.55934114170000 -25.05304308430000 -20.48106921110000 -44.30482561740000  70.68847235430000 127.65132240300000  -3.438609071600e2 102.85603253400000
 221.01065738200000 267.80815458100000 213.01605634100000  -1.122208582500e2  -5.13364185133000  83.85568321230000
 -19.03875724780000  66.35596752880000  17.41978995950000  21.69256538930000  42.89831183750000 -67.94104858600000  -1.288020289130e2 446.24385355800000 -75.71845267890000
  -1.955641253900e2  -2.294488616170e2  -1.737366461840e2  89.07870231130000 -11.54918390700000 -73.19210458980000
   9.51491572491000 -19.53734057180000   3.67116351698000 -18.36854150720000 -28.93455509840000  47.06354309510000 110.76852976800000  -4.891002927820e2  42.19441634920000
 152.91298985600000 178.62085587800000 131.79966573100000 -66.66527217230000  41.72090101180000  29.48585913450000
   2.79727536134000 -41.88868404190000 -32.04174760390000  15.80721836940000  15.63735073090000 -34.37938931250000 -96.57217393720000 463.24787567900000 -21.49016015630000
  -1.114778215930e2  -1.302567009830e2 -94.71105410050000  47.55325317410000 -80.98410227580000  28.43460707650000
 -10.26389426650000  86.63846638010000  56.78023239880000 -21.51168616260000 -21.39560008530000  39.81860678760000  87.15621635290000  -3.879658943420e2  13.10486676590000
  78.61171770750000  91.49531054530000  65.93396212970000 -32.96548421520000 121.50335228700000 -70.87446636840000
   8.50718874693000 -92.41529204430000 -67.40387162700000  35.42503347400000  35.35470840840000 -44.63517996780000 -71.18276603350000 281.93589902400000  -9.40390785260000
 -51.83453875260000 -59.87012346450000 -42.88799752080000  21.38779988190000  -1.510768750370e2  79.85109806020000
  -0.67056872860100  62.12221668580000  57.73202973180000 -38.32409769550000 -35.67095768560000  36.69942468520000  48.16970159920000  -1.731716579100e2   6.51481263586000
  30.54243335410000  34.95925069010000  24.93819640780000 -12.41574405580000 153.82889860600000 -61.60846208520000
  -4.48234405205000 -23.16328299760000 -30.33030320740000  24.52405362950000  22.56261906140000 -21.40633399940000 -25.43238823580000  85.29919153050000  -3.72659827669000
 -14.97616358180000 -16.98730761710000 -12.08047321260000   6.00767253109000  -1.187613425810e2  38.12822077520000
   3.48211855420000  -0.17901658246300   7.48755452198000  -9.43202500446000  -9.11412734969000   8.41960794736000   9.48167102300000 -30.19358507900000   1.51700184085000
   5.37205220689000   6.04359536204000   4.28798230252000  -2.13079957961000  60.00611282930000 -20.78094905500000
  -1.84234181244000   3.04340668739000  -0.38573411487500   1.94059686136000   1.95128639543000  -1.75348981211000  -1.89080239635000   5.76756267305000  -0.32311508608500
  -1.03969420365000  -1.16201112400000  -0.82310932147400   0.40881137901900 -14.49940505920000   7.15302783301000
Spectral Representation Operator
End of Spectral Representation Operator

/S.LANL2DZ_NL.Wadt.3s3p.2s2p.ECP.6el.
W.R. Wadt, P.J. Hay. J. Chem. Phys. 82 (1985) 284-298. doi:10.1063/1.448800
SULFUR (3s,3p) -> [2s,2p]
     6.0   1
* s-type functions
    3    2
          1.85000000
          0.40350000
          0.14380000
  -0.53243350   0.00000000
   1.27638010   0.00000000
   0.00000000   1.00000000
* p-type functions
    3    2
          4.94500000
          0.48700000
          0.13790000
  -0.06081160   0.00000000
   1.01326860   0.00000000
   0.00000000   1.00000000
M1
  0
M2
  0
COREREP
 1.0
PROJOP
    2
   17   17
  -1.215422630690e3  -9.78788325256e-8 -72.3867302507e-12  65.1921933032e-14   3.32018151579e-6   2.18713980458e-4   0.01297582181100   0.33920809641400   2.45561263455000
   7.14813304179000  14.57046607080000  28.84147122960000  61.56824693760000 162.48891421900000 283.51540943900000   1.038631574360e3   2.422271719200e3
0.14795919333800
0.22277204185100
0.34674557717000
0.54507468438200
0.85684268557500
1.36031977811000
2.15963785403000
3.42863180820000
5.44328117526000
8.64172988247000
1.371957335240e1
2.178113589890e1
3.457963807330e1
5.489848531460e1
8.715660017740e1
1.383694451850e2
2.196747385960e2
  -0.02508841727050  -9.32076692085000  17.04831778310000 -26.96498524350000  -6.55899876391000  -1.81403128780000  -0.32578627688400  -0.09069970451710  -0.03760311833090
   0.02030895452970   0.01460033136180   0.01127199329770  -0.00801750382095   0.00342778281628  -0.02396667735510  -0.02169293849410  -0.00605378928734
   0.15408965907700  48.16116995980000 -78.72531373590000  85.07005307930000  35.79359861440000  10.56720259990000   1.97755515046000   0.55596759027700   0.23081718903700
  -0.12469739419400  -0.08966678137530  -0.06924143153430   0.04926763709920  -0.02099338206830   0.14713104988600   0.13325750856400   0.03717659039080
  -0.56564203527500  -1.282994072310e2 163.19992561300000  -1.337552133460e2  -1.066391892240e2 -35.38402628760000  -7.11344233456000  -2.03404052102000  -0.84650028174800
   0.45753458785600   0.32910849286700   0.25421655771000  -0.18096796435400   0.07679016779930  -0.53977996171600  -0.48927718212400  -0.13644701009100
   1.69363016415000 213.52843196700000  -2.177389574480e2 150.54535618900000 223.62679380500000  90.75643322410000  20.58491653350000   6.05672179875000   2.53103630560000
  -1.36905961425000  -0.98514622426100  -0.76119434072400   0.54208157501000  -0.22930207628000   1.61546373789000   1.46526238831000   0.40848990817200
  -4.55937077419000  -2.489961907860e2 221.04483567500000  -1.400568645400e2  -3.371540663370e2  -1.877640411690e2 -52.24760135080000 -16.15382413030000  -6.80013309402000
   3.68268971945000   2.65075567007000   2.04833460902000  -1.45852190770000   0.61864354376900  -4.35041256533000  -3.94442733033000  -1.09976376346000
  12.07390752840000 233.28337880000000  -1.937150564760e2 118.17176666400000 392.61344352200000 302.67955395400000 122.61049571800000  41.97917700170000  17.94843769580000
  -9.74300313236000  -7.01260653550000  -5.41559286291000   3.84966821273000  -1.66474625041000  11.55063570520000  10.43753782230000   2.91434962203000
 -30.90701202750000  -1.974049814930e2 160.36945889200000 -96.50809219570000  -3.855211183800e2  -3.836759294650e2  -2.204798813990e2  -1.017477062320e2 -45.54459896890000
  24.89355212980000  17.91059589510000  13.80255055750000  -9.75967747358000   4.46368458810000 -29.79796719910000 -26.65197390980000  -7.47598321211000
  69.77431994880000 158.66455167000000  -1.284363496450e2  76.94381575860000 338.70390942900000 401.67047145100000 295.22315787000000 178.40613473900000  98.50892734890000
 -55.61076028120000 -40.14330271630000 -30.83101431350000  21.55211098400000 -11.08325256080000  68.41097008700000  59.81821357040000  16.95645925580000
  -1.304671501740e2  -1.239439665590e2 100.46096382400000 -60.09099756060000  -2.779884528460e2  -3.683142587050e2  -3.151972117880e2  -2.234634100840e2  -1.472723104640e2
  97.92460899920000  72.92788626210000  56.12600885000000 -38.50597049830000  24.20483213490000  -1.317916548430e2  -1.105298115340e2 -31.97739967260000
 199.17856853300000  94.50753748480000 -76.73558261450000  45.87135743300000 217.76415820800000 308.50472784200000 287.94901236800000 217.53785945300000 150.79694469100000
  -1.151810883550e2  -1.002989387220e2 -79.91290651800000  53.50845066160000 -46.08917083940000 211.06468087300000 164.80204412000000  49.52200107200000
  -2.499738637290e2 -69.91329424690000  56.83945445130000 -33.96796134940000  -1.635316970990e2  -2.410809079590e2  -2.359180904330e2  -1.788493727380e2  -1.140332777020e2
  85.22609982660000  88.96353792660000  83.22713032510000 -54.50618662060000  77.12139731860000  -2.848930773890e2  -1.969631936090e2 -63.61880436890000
 259.19026685200000  49.45608737760000 -40.24141231720000  24.04509272270000 116.67999659600000 176.14197452600000 176.88279389700000 131.31335901700000  69.90781868590000
 -37.62989246880000 -41.32914530420000 -49.31757703670000  31.96019975600000  -1.131362820590e2 328.15890916200000 182.96163876900000  68.46765192040000
  -2.213951607970e2 -32.61826591370000  26.55468542250000 -15.86561026670000 -77.34297956700000  -1.184442693140e2  -1.207515471420e2 -87.87962522990000 -38.46976060920000
   7.09239427269000   0.72837633332000   3.52593979909000   7.93781231948000 141.10025388000000  -3.215847720960e2  -1.176342837780e2 -61.77880138590000
 156.68285565500000  19.22477094030000 -15.65600671420000   9.35351022384000  45.72030932050000  70.63629805280000  72.72772745790000  52.53427405510000  20.46903275010000
   1.96315483895000  11.34764520940000  16.15355125580000 -30.77846392020000  -1.390131434930e2 260.81553290500000  28.64080076360000  46.30365966570000
 -95.35183869580000  -9.41828194938000   7.67143837064000  -4.58307936882000 -22.43792396390000 -34.85635493610000 -36.13924922240000 -26.18190207020000 -10.01428762830000
  -1.66893222939000  -7.59172681516000 -12.21400203040000  23.95888228310000  94.73634330730000  -1.635717591810e2  32.37225441690000 -27.54849868490000
  48.60628034390000   3.35536291160000  -2.73336058737000   1.63293770054000   8.00220217436000  12.47358172820000  12.99338783920000   9.46151696866000   3.67474319509000
   0.53523237191700   2.77990650068000   4.72546647913000  -9.78478190675000 -39.67209663760000  67.49210377920000 -36.54810689430000  10.33088169310000
 -14.28803061740000  -0.63611891236400   0.51823684311400  -0.30959651138200  -1.51807612980000  -2.37130750254000  -2.47684860317000  -1.80618194814000  -0.69915385079700
  -0.11044739894300  -0.55935368480900  -0.97587012706200   2.05692497353000   8.15965508343000 -13.13874221500000  12.35381678360000  -0.41078938434000
   17   17
  -1.039463266380e2  -0.79538659943500  49.2350965288e-13   1.31370758690e-8   2.39785022546e-6   0.00039029454346   0.01810220318650   0.04046366874400   0.32137250894200
   1.16234131311000   3.44681173159000   6.79924792822000   9.51939735806000  24.26753445450000  64.88632883780000 103.40104297600000 463.19938790300000
0.21961255506600
0.30100013811500
0.43317713449500
0.64445985240300
0.95879599426200
1.45187853231000
2.19853992423000
3.32918883424000
5.04129953334000
7.63390190530000
1.155980871880e1
1.750470195630e1
2.650689107690e1
4.013865967640e1
6.078087377140e1
9.203881360770e1
1.393718563860e2
  -0.00981930476643  -0.38328225733400  43.20516283220000   2.70493999189000  -4.32052369541000  -1.35154645207000  -0.74993253764800  -1.42773036002000   0.25802748567400
  -0.01997781558290   0.02409246594860  -0.02293358771710   0.00894425980397  -0.00706014796311  -0.00670019107229   0.00261643874824  -7.88951357675e-4
   0.06765209103150   4.38662808795000  -1.520073413980e2  -2.29210874510000  38.60759766470000  13.67592811010000   8.11801566810000  16.25935893020000  -3.07311275436000
   0.31756910689900  -0.21518101632800   0.16128374922800  -0.08298917283540   0.05280894122810   0.04635106988450  -0.01794723057280   0.00535371522735
  -0.28669934935000 -12.36610471060000 264.41680668300000  10.45023977000000  -1.239249437640e2 -42.01282466450000 -23.86682299050000 -46.01500634650000   8.40645515788000
  -0.70432179673300   0.73683969997200  -0.67485336529400   0.27489135496100  -0.20873175402700  -0.19541913054900   0.07602953180740  -0.02300958780870
   1.05436180122000  15.02223319610000  -3.335721760280e2 -42.91777607740000 252.76216044900000  75.86964986170000  36.18636836590000  57.22477238980000  -8.32468262113000
  -0.54877549334900  -1.85338922138000   2.44258887194000  -0.63444393719800   0.69368283777900   0.71335694133100  -0.27912212481700   0.08622541771390
  -3.35135698403000  -2.51843085000000 343.83010364200000  82.02616150250000  -3.713094064160e2  -1.146412725700e2 -37.94671868150000 -15.68971469750000  -7.06530691537000
   6.40549392259000   4.62361409070000  -7.75690124701000   1.44643271444000  -2.09131038592000  -2.25345790417000   0.88084910186700  -0.27699590769100
   9.80085858261000 -24.01655240410000  -3.124945285860e2  -1.065929038630e2 437.74803960200000 162.68401420100000  52.72137063270000 -68.28169694810000  43.65131064580000
 -21.94320029940000 -12.66893292810000  23.03142156940000  -3.75736244080000   6.01020158910000   6.53694706814000  -2.53141728782000   0.81592052737800
 -24.73037196770000  55.72434572990000 271.52775236600000 113.46964735700000  -4.518827978950e2  -2.057375065900e2 -91.69198688980000 147.54982029400000  -1.035596147660e2
  54.45094035620000  32.20330026080000 -60.07599265910000   9.09549580644000 -15.01769441420000 -16.23982118210000   6.15233167699000  -2.08078821592000
  50.37017172820000 -79.31083345280000  -2.264753954090e2  -1.065027743820e2 420.70614369500000 223.15870668700000 128.86383500200000  -1.895259083400e2 161.75434733100000
  -1.028751837460e2 -66.36303492040000 129.62969559000000 -17.11794696300000  29.98579624270000  32.02134193240000 -11.56768932980000   4.32473624407000
 -81.29684038660000  83.74145791030000 182.54485269700000  92.08181812420000  -3.632764940010e2  -2.128663838920e2  -1.416606115100e2 194.28129704700000  -1.854948765080e2
 135.92688977600000 104.33291511300000  -2.290275219710e2  21.99325214640000 -46.06990846670000 -48.13305214700000  15.51150413410000  -7.25273435112000
 104.06753186300000 -73.59714346660000  -1.423446993960e2 -74.92371664330000 295.71389798600000 184.23818322500000 130.76160492600000  -1.755049323680e2 171.20109173700000
  -1.286765483400e2  -1.152982439750e2 334.32340183900000 -11.36128620530000  51.84961916610000  51.63582883830000 -11.18268955910000   9.98395562865000
  -1.062439551610e2  61.90986181610000 106.80105760100000  57.71023072270000  -2.279291146600e2  -1.474356349710e2  -1.076079760930e2 143.94153002300000  -1.364697743610e2
  95.51763177660000  92.48820694350000  -4.053547502590e2 -24.66944651580000 -35.68617936360000 -29.05765360230000  -8.84564297602000 -11.67627095070000
  89.56454794830000 -53.17235189470000 -76.08404394760000 -41.79266464460000 165.15751781400000 109.37041675000000  81.23387685930000  -1.073195851170e2  98.04592095410000
 -62.23399138140000 -61.58819783820000 410.61456216300000  62.53994571890000  -0.36492303633300 -20.54117340390000  46.07792531240000  12.27094500500000
 -72.61777758330000  45.07976438640000  50.23465136290000  27.88122624120000  -1.102297712330e2 -74.11149421910000 -56.01208167430000  71.72568334490000 -63.69653792450000
  38.23156900930000  39.44631347920000  -3.459035190790e2 -71.72527680980000  27.77807435600000  74.00747940130000 -87.97210108090000 -12.11532435680000
  68.97908076760000 -38.51806175310000 -29.50695673210000 -16.48519756770000  65.19508149550000  44.27460631980000  34.19902088920000 -40.89242362120000  34.78704357660000
 -20.65999872470000 -24.33329020480000 235.66666020600000  54.21171078710000 -31.59507547640000 -94.21896097110000 107.30663772700000  10.03482220540000
 -63.36363892420000  33.93796488480000  14.37709873180000   8.06615555321000 -31.90639295190000 -21.81909879070000 -17.49270452540000  17.41227450680000 -12.61911614110000
[...]
  -3.06688595303000
   18   18
  -1.595834972090e2  -0.09678612351650  16.9764069289e-12   2.88606282585e-8   4.13214948293e-6   1.75189983214e-4   0.01642142955680   0.17992789004000   0.40829615283900
   1.08014466447000   1.85376954574000   2.55037819159000   3.84642875587000   6.19468659952000   7.16559626929000  15.43420137910000  51.17252667290000 215.28717347000000
0.09902836262600
0.12873268299200
0.17884675783800
0.25487424029100
0.36683068257500
0.53321235093400
0.77505897051200
1.12659882450000
1.65385974784000
2.42788471462000
3.56416207311000
5.23223001773000
7.68097252506000
1.127575407250e1
1.655293382300e1
2.429989306140e1
3.567251637140e1
5.236765532480e1
   0.02030772600730  -1.43108006065000  49.69383802140000  -7.82969755026000  -0.97962941457800  -1.61902170667000   0.65816433658200  -0.60845434197300  -0.45855384107000
  -0.12409658714000  -0.09090632322900   0.07331298705940   0.00588026783295  -0.03936737858570  -0.00830532719697   0.00700044286020  -0.00866056567381  -0.01407906951490
  -0.11993730288100  16.31707604700000  -1.663668230020e2  27.84464673180000 -10.65886575490000  25.26451759850000  -8.60659672455000   7.23894383916000   5.10639732669000
   1.29667063762000   0.93572910011600  -0.69188467831600   0.01049364911380   0.21041087675100   0.09631599445120  -0.03053197731310   0.05143554702680   0.08295274045070
   0.45781009419100 -57.22853736830000 287.06567302400000 -71.68545245490000  37.57084988160000 -87.06624186950000  29.82883249700000 -25.28124791600000 -17.94916622140000
  -4.58871728513000  -3.31681408656000   2.47641546235000  -0.01002368060780  -0.82306409262000  -0.33833616167200   0.12344967911600  -0.19615227809100  -0.31632386346900
  -1.47905856941000 126.87595669300000  -3.630002872210e2 138.82315110000000 -44.38338527510000 170.20552842800000 -61.63955361150000  54.74335422730000  40.29163606060000
  10.67534899350000   7.78192498572000  -6.10170376509000  -0.30693955902200   2.85588079755000   0.75073728949400  -0.47834179055000   0.63161926308200   1.02076726611000
   4.27368779416000  -2.218969618920e2 378.63375658300000  -1.977543164570e2  12.06804099430000  -2.284601594540e2  91.87898584180000 -90.90507221880000 -72.24150207770000
 -20.50809534160000 -15.18098278430000  12.91375298890000   1.74492990076000  -8.80948313461000  -1.32740799927000   1.58006696296000  -1.81985117173000  -2.94096632599000
 -11.38659027670000 331.37169720600000  -3.531797385170e2 226.64215894600000  37.03720029090000 236.67141422000000 -94.11521530810000 120.85042840600000 112.79415348200000
  36.12188238550000  27.39507118210000 -26.04652213960000  -6.26260658232000  24.88302672610000   2.09789235305000  -4.56296007296000   4.83955988840000   7.78537870577000
  26.31639629490000  -4.255163388320e2 308.82264065200000  -2.251401770660e2 -74.46977547100000  -2.073149075830e2  60.27649077280000  -1.190168131810e2  -1.535546360710e2
 -59.10324363780000 -46.34564911730000  49.64574377450000  16.93228063830000 -61.28841124360000  -3.29712482419000  10.99808736170000 -11.17289802930000 -17.75403628430000
 -48.83664028920000 463.62355544300000  -2.521722783250e2 198.84308926600000  88.86705960400000 161.06161752000000 -14.34542261690000  83.14059755530000 169.40328073000000
  83.89373592560000  69.25025913040000 -82.67929802470000 -34.86189360540000 123.85307850300000   5.76781574926000 -20.78870787240000  20.71214399650000  32.07395165690000
  73.31026984680000  -4.440608572140e2 197.82186384300000  -1.639113429080e2 -86.16528011120000  -1.184378546740e2 -17.54697314470000 -46.20481316200000  -1.577359483940e2
 -92.46512283380000 -86.25041720240000 115.77974721900000  57.25655565410000  -2.105982181030e2 -11.55751959580000  31.23412266780000 -31.00283281600000 -45.49257725940000
 -89.00586036530000 387.55934446500000  -1.543987412290e2 131.91942780400000  76.01932255190000  87.34327596860000  29.96027994410000  31.60192475910000 140.42968979200000
  81.91911055760000  80.97544889650000  -1.288478085800e2 -75.47612350850000 306.43293163800000  23.41851580100000 -37.01485703510000  37.32687812110000  48.42506393550000
  84.62975080030000  -3.100997223600e2 118.13553237300000  -1.029014602550e2 -62.61990304780000 -64.04572834000000 -30.07554245040000 -32.66593590350000  -1.262858910810e2
 -65.93777232790000 -58.45410771620000 103.98873307600000  76.36983808150000  -3.833284575180e2 -43.30779015490000  32.28647129210000 -34.64554453590000 -30.38196623930000
 -58.00468867620000 233.39562599800000 -87.58062744840000  77.22868135690000  48.59771856750000  46.05725553640000  25.45334164480000  32.73114487780000 108.43695694900000
  52.11650444150000  36.96061598400000 -58.80834495500000 -53.15978554600000 414.92056300300000  69.26974790170000 -15.65630174840000  21.82830957920000 -12.59238574830000
  20.73494623980000  -1.690943293910e2  61.87513259300000 -54.99364242760000 -35.34701952320000 -31.81200450990000 -20.12347193390000 -24.15948681020000 -81.55006946660000
 -38.93606719350000 -22.90863937460000  25.38236734710000  26.25134358830000  -3.873421006100e2 -89.54337721420000  -6.20453371305000  -3.84880178562000  72.27945834140000
   5.37991652815000 116.87185764800000 -40.59567462560000  36.26562647350000  23.63193586210000  20.50263308560000  14.96306156780000  11.59203625210000  51.17723818100000
  25.74719678780000  13.85367384450000 -12.05836592730000 -14.10402334060000 309.28920653600000  83.12628863720000  19.41470803790000  -9.55108699108000  -1.257146842860e2
  -5.58476796249000 -74.50916635450000  23.73154549400000 -21.27089659380000 -13.98636254820000 -11.81302645300000 -10.00714543810000  -1.22579938600000 -24.34444873560000
 -13.15289391870000  -5.92866373165000   6.36691526711000  11.06175264240000  -2.060344848670e2 -54.11470300960000 -14.80160866130000  11.40111053450000 143.22125787000000
  -8.54407191821000  42.50553341370000 -11.53471766100000  10.36115874550000   6.85326776058000   5.66932490688000   5.72523654445000  -4.95435453850000   4.53510056405000
   2.45834176196000  -1.74154224329000   0.17083474311000  -7.90026774291000 108.35936672700000  24.82931646100000   5.75756288433000  -6.21564952989000  -1.118455839390e2
  12.01927724100000 -20.12672853640000   4.10303179023000  -3.69079857142000  -2.45082772239000  -1.98777432386000  -2.58856757811000   6.08171265244000   4.66628985906000
   2.93566008552000   5.22826869286000  -4.07633583256000   4.06408475674000 -40.52987028780000  -6.95585747082000  -1.26996808199000   3.37787618214000  54.90140142570000
  -3.97796090572000   5.79413467250000  -0.78869422773200   0.71011130841500   0.47284979928000   0.37385620925600   0.69821853354400  -2.82696450698000  -3.35507139885000
  -2.08408998161000  -2.84927496995000   2.42490114716000  -1.22506534896000   8.23387716321000   0.52806273174100  -0.11223742921800  -0.89708600611700 -12.88297003400000
   18   18
 -92.51205032630000 -13.18821296620000  -2.34305021934000  -2.25678093978000  -1.23480089250000  -0.62500318197600  -0.58007903774500  -0.24325437159300  -0.05396483271750
  -0.00416015654802  -8.38233312784e-5  -4.45604162228e-6  -3.69039573851e-8   0.25362388721300   1.08986529507000   5.89410508873000  27.79072607760000  95.92391948610000
0.14969893488600
0.18907499498400
0.25324076734000
0.35064258413200
0.49033233382100
0.69248639296800
0.97798446353600
1.39491422758000
1.98958753932000
2.83777919699000
4.04756795654000
5.77310820383000
8.23427270178000
1.174466934160e1
1.675160186450e1
2.389306645110e1
3.407904683130e1
4.860746674370e1
   2.58564362988000  -1.56467341058000   1.29902651341000   0.87885665677300  -2.06850784844000   2.39640981113000  -2.21377836572000  -0.31206930383700   3.82434632304000
 -10.23450563620000 -34.05143329780000  42.01439642610000  -1.04962442186000  -1.57456994857000   2.40305102889000  -1.86172728271000  -1.13516210561000  -2.51426239738000
 -11.34961851790000   6.93574313267000  -5.12843600109000  -3.67263979614000   9.26610132964000  -8.01769319133000  14.69391204610000  10.18259451490000  -5.15801889280000
  27.95626539810000 107.63048470400000  -1.498122408080e2  22.42150644120000  -6.27078081204000 -12.11388268040000   8.22402078881000   5.00117552760000  11.03560755140000
  27.81090696390000 -17.26769952190000  11.54666317170000   8.66043604573000 -23.17966449730000  14.82448240910000 -46.24592054650000 -43.10485322660000 -11.36613051090000
 -32.68503374780000  -1.697090227940e2 273.81996681300000 -60.36482488210000  42.13374999450000  33.32617723960000 -20.40926157290000 -12.33051067960000 -27.03948934650000
 -53.68803076980000  34.19886390690000 -22.09709659770000 -16.60232881950000  45.60948204490000 -25.69854561310000  98.71887894480000 100.04585174400000  44.43079032770000
  25.92271334730000 205.95029394700000  -3.591984566530e2  86.77145463120000  -1.043575410600e2 -69.63073294290000  40.33189612950000  24.04854942470000  52.19444740030000
  87.40923089260000 -58.05540159860000  39.02116642840000  27.83983819890000 -75.93222477130000  48.31498972390000  -1.600383080820e2  -1.620500831590e2 -72.10628054180000
 -28.59665979850000  -2.182236100850e2 378.03702533900000 -91.03094602000000 161.47859958100000 120.70436713100000 -68.38958906300000 -39.83882053700000 -84.96768907980000
  -1.213014753940e2  86.59722086540000 -63.40149032370000 -41.18302611160000 109.64943442900000 -89.38680901450000 211.31264130700000 206.85078772500000  78.31818154300000
  38.30880399240000 206.53008807100000  -3.440988726600e2  80.98072101110000  -1.775460850930e2  -1.837904157320e2 102.02356159600000  57.06535544410000 117.88923804500000
 137.08729608900000  -1.107393368060e2  90.58078990670000  51.78600581820000  -1.345595081720e2 144.08307170600000  -2.316882875890e2  -2.234137718730e2 -76.59335510990000
 -39.17991156300000  -1.769544730750e2 285.50727913000000 -65.94913462890000 139.47614399000000 247.37773161500000  -1.310297247520e2 -68.43624257350000  -1.331775160170e2
  -1.194277115310e2 120.84009081100000  -1.149904548400e2 -55.41055606950000 142.16482976800000  -2.026805618900e2 220.32721108900000 228.10623616000000  80.16309684490000
  31.01059123930000 142.07658714300000  -2.251309709720e2  51.40594426820000 -70.29556103730000  -3.018968836860e2 145.93628262400000  67.59543620400000 115.89267610700000
  68.27113493770000  -1.099658631540e2 133.69195453500000  52.64065193340000  -1.376320900970e2 255.82358657400000  -2.034214402780e2  -2.315199474700e2 -82.98884409510000
 -22.52272344960000  -1.128013546840e2 177.09797979700000 -40.17892162870000   6.98979186772000 339.48673754800000  -1.429321280610e2 -53.49862900070000 -65.83135706860000
   1.00471947765000  71.95412798270000  -1.465062958810e2 -50.26228625160000 139.74424739300000  -2.873572531490e2 194.17716360500000 222.44397646300000  76.47726221660000
  16.84220950970000  88.22273856030000  -1.376409150620e2  31.10914845040000  33.47347758300000  -3.454445708040e2 121.25893343600000  29.72730149480000  -2.68402080478000
 -58.63378534290000  -8.19069370389000 159.92173055200000  60.54565984220000  -1.527202332550e2 287.15522117300000  -1.880500895630e2  -1.991423115740e2 -63.49650594150000
 -13.11738671750000 -67.55010828800000 104.85204153900000 -23.64194054030000 -52.38933484240000 314.87857161800000 -88.03424011350000  -5.47412895098000  62.35541602920000
  80.10920402800000 -71.17828560370000  -1.733742049320e2 -73.20349748480000 157.64410355200000  -2.596976441430e2 174.06711465100000 168.51389702900000  50.14374211720000
   9.85981750351000  50.02100258150000 -77.37811204760000  17.42137387850000  58.33016643440000  -2.561440057190e2  53.36377939370000 -10.46367374500000 -92.23299632190000
 -62.21843660880000 144.68779807700000 165.37380922100000  71.28667103950000  -1.411199584790e2 217.32108168500000  -1.465015372800e2  -1.350931128210e2 -38.74197625970000
  -6.65888899267000 -35.18614713140000  54.36498348500000 -12.23007740580000 -56.15049742770000 189.08462269000000 -26.90710272610000  14.27769538650000  92.32899870540000
  23.25614058320000  -1.830561264510e2  -1.258794645530e2 -54.56672988910000 106.32703441100000  -1.614546296980e2 108.93930479800000  99.02193402620000  28.04034195220000
   4.02076251072000  22.92856399060000 -35.42510140930000   7.96572242084000  47.90904586180000  -1.334214989080e2  15.46480703410000  -7.99317916484000 -80.32127527450000
  12.31976674420000 166.62980514700000  73.86631468520000  33.15915793340000 -66.13852823020000  98.74250929990000 -70.62257871580000 -63.54522502560000 -17.87373655890000
  -2.18341681848000 -13.30183602620000  20.54580770090000  -4.61831124582000 -36.13229860760000  87.45348442720000 -17.27752507900000  -2.17784688291000  69.98366859620000
 -28.20443914640000  -1.073435441540e2 -32.00537417460000 -15.46822079010000  32.96861728880000 -45.94167368730000  39.92018344910000  35.05804665790000   9.81908245512000
   0.95202493187200   6.41411775053000  -9.90424683472000   2.22559520919000  24.57775466470000 -45.90758938890000  15.72023523120000   7.73541217127000 -56.09609925920000
  21.47435658330000  44.78407102220000   8.44508551064000   4.77225666653000 -12.09832784360000  13.72843865660000 -18.97843755970000 -15.98769745310000  -4.49184532657000
  -0.23419038016100  -2.26275114067000   3.49821030706000  -0.78592891606200 -14.47711043790000  15.54668670010000  -7.76143451630000  -4.20846624518000  31.42617857210000
  -6.37196707878000  -9.41425851035000  -0.47802499605300  -0.59485176509900   2.47097828592000  -1.46659162280000   5.72989588167000   4.61135233818000   1.30824532052000
  -0.00282581003606   0.43160911617100  -0.67020147038900   0.15056208074400   5.23546755052000  -2.14310925032000   1.81963668381000   0.91930527294000  -8.28177683635000
   17   17
 -57.98127587410000 -43.01889716110000 -26.65099729070000 -13.29737512890000  -5.97421146754000  -2.56278131778000  -1.02134268381000  -0.39707457484700  -0.11394457993500
  -0.02344761148230  -0.00441013698302  -5.83726630075e-4  -2.85845186985e-5  -7.48466316632e-7  -2.14618087088e-9   0.38501475268500  41.35069963840000
0.21947046632100
0.27159831987300
0.35642011640200
0.47978863695400
0.65737235745200
0.90963624100300
1.25870533126000
1.75903801598000
2.45825187581000
3.43540175371000
4.80096662410000
6.70934061811000
9.37628920473000
1.310334416670e1
1.831189552730e1
2.559083494550e1
3.576313725850e1
   0.00707762564752  -0.07605910311870   0.02961458953270   0.00709670904061   0.01021532746400  -0.01026827715040  -0.25117518596200  -1.48835350983000  -4.30380228910000
  14.46262587670000 -31.87474444970000  28.31212096250000  15.09424280380000   8.98589197370000  31.41957303390000  -5.78502046798000   0.08610551148870
  -0.03910355476610   0.40340613318500  -0.15769541559100  -0.04707419604840  -0.08738602074310   0.11258905034100   1.02062754504000   5.54823357909000  15.79666789500000
 -52.50575915960000 114.64776503700000  -1.000131163120e2 -59.05658620220000 -44.86286448830000 -83.14773182640000  20.98595853780000  -0.45570925462500
   0.13514626758600  -1.34440737094000   0.52787337607800   0.18667309514000   0.39682290636800  -0.56021100678100  -2.40772638517000 -11.01170879400000 -30.23221310670000
  97.82466955130000  -2.086376355170e2 173.73685808100000 127.35536139500000 123.44792882200000 106.77651824500000 -39.02765245740000   1.51551561684000
  -0.38296675501800   3.73872263427000  -1.47536616158000  -0.57011800139700  -1.29112297343000   1.88786985253000   4.90613051412000  17.17485428860000  43.77361713400000
  -1.333015288230e2 268.51635599800000  -1.982780209470e2  -2.146931444230e2  -2.223320722500e2 -98.87716308160000  52.97662973970000  -4.20834557330000
   0.97926010889600  -9.57524156572000   3.80977017530000   1.50852252238000   3.53318022794000  -5.24260818600000 -10.24164999100000 -26.66151694150000 -60.20011794170000
 162.67203443000000  -2.874227494700e2 153.45903788500000 301.53914577500000 296.26487396500000  77.81952016090000 -64.28108698630000  10.76754731940000
  -2.28810360745000  22.93991345350000  -9.27238304635000  -3.57577710792000  -8.62383832461000  12.89598922550000  22.00905422390000  45.72342538910000  89.82099661380000
  -2.022280863620e2 277.80554883100000 -68.16683099070000  -3.622879964720e2  -3.268835142290e2 -58.21842685800000  80.26137512650000 -25.77589025100000
   4.50525427865000 -47.78526398360000  19.85990130120000   7.09316389130000  17.83659074190000 -26.84575575980000 -42.96585639720000 -77.21317658460000  -1.324797195200e2
 234.83311676900000  -2.416303663000e2 -13.75259846920000 373.93405837600000 313.02970210400000  42.58486047890000 -99.47240013600000  53.65287385360000
  -7.32555717546000  86.89205930390000 -37.83887042840000 -11.62483405340000 -31.49242899610000  47.71692473790000  73.03142274540000 116.24364379300000 166.59052889100000
  -2.413327138910e2 193.81707146500000  66.41538988120000  -3.456957052680e2  -2.733284823770e2 -30.80912604090000 114.24310239300000 -97.53521779360000
   9.26280158645000  -1.372397636640e2  64.22925487690000  14.95596127710000  46.77845842360000 -71.12256965400000  -1.026254495830e2  -1.392012038760e2  -1.738195005680e2
 225.08633596500000  -1.524371880430e2 -87.93487333190000 301.42546591800000 229.18561055700000  22.78604346040000  -1.160864716290e2 154.34590935800000
  -7.26869360722000 185.37761810000000 -96.59699484370000 -12.60987143420000 -55.86443669430000  83.94450380330000 107.32428745100000 129.87923634000000 154.53353287700000
  -1.931723404250e2 118.06638635000000  87.73053867090000  -2.480267509340e2  -1.837444719410e2 -16.80281309650000 101.34356969000000  -2.102808549620e2
  -2.08355335061000  -2.117871061900e2 129.09977466700000  -0.02917541795990  48.79836621180000 -69.81599097380000 -82.49176663620000 -98.93090109210000  -1.221860792530e2
 154.41980942500000 -89.22546400710000 -75.46576278160000 192.57980450400000 140.24196099100000  12.12891662120000 -78.10732680390000 246.59991438500000
  19.93239114790000 199.42107320700000  -1.523541942940e2  23.05037025080000 -22.23966305160000  38.13967867340000  48.48751420290000  64.91907516100000  87.88625087740000
  -1.143422040790e2  64.12139015380000  58.15730347820000  -1.398692162780e2  -1.007071761590e2  -8.39090774523000  56.23452672560000  -2.487853813430e2
 -41.29170515680000  -1.466898959020e2 154.70645120000000 -45.74973613430000  -3.78136315205000 -12.25297660040000 -23.06049459680000 -37.86294192670000 -57.15045024510000
  76.71391005410000 -42.31062749530000 -40.18139767380000  93.10358688570000  66.53013248980000   5.40649172955000 -39.89713497160000 216.19720580000000
  53.79584162390000  75.83665749990000  -1.275709713550e2  48.18805957250000  13.24285844770000   0.66440150858000   9.05161245319000  18.90677502030000  32.07678535770000
 -44.62908132370000  24.41789108830000  24.23708713820000 -54.72879969140000 -38.91032712100000  -3.10939942670000  29.16018259310000  -1.624071822390e2
 -45.79950142120000 -20.90784998370000  76.57498001720000 -32.11303986060000 -10.43940142950000   1.82696113888000  -2.29915396079000  -6.46537249220000 -13.71173480810000
  20.56692044200000 -11.30856117340000 -12.04242281380000  26.61940044190000  18.86167332680000   1.49034912763000 -22.57506753810000 102.84694623200000
  22.34092497230000  -1.73542490277000 -29.99684369600000  13.74004975540000   4.67910288504000  -1.11446560890000  -0.29731740000900   0.10176411587300   3.12506613552000
  -6.13603720392000   3.50737755087000   4.39297591757000  -9.47392121055000  -6.69838219133000  -0.52524950586400  16.04002183060000 -48.07677499560000
  -5.19059908922000   2.16077596080000   6.06011068026000  -2.91904504122000  -0.93295832040700   0.19708063321700   0.43261345580300   0.90902565608800   0.17310786116000
   0.64526433607500  -0.44766712664100  -0.88354913171100   1.83213399211000   1.29376999266000   0.10092709988500  -6.69423367490000  11.49681983670000
Spectral Representation Operator
End of Spectral Representation Operator
