************************************************************************
* This file is part of OpenMolcas.                                     *
*                                                                      *
* OpenMolcas is free software; you can redistribute it and/or modify   *
* it under the terms of the GNU Lesser General Public License, v. 2.1. *
* OpenMolcas is distributed in the hope that it will be useful, but it *
* is provided "as is" and without any express or implied warranties.   *
* For more details see the full text of the license in the file        *
* LICENSE or in <http://www.gnu.org/licenses/>.                        *
************************************************************************

#Hamiltonian UNK
#Nucleus UNK
#Contraction SEG
#AllElectron NAE

************************************************************************
* This file has been generated from GAMESS basis set data              *
* (version Sep. 30, 2020, some ECPs corrected from higher contractions)*
************************************************************************

/Li.MCP-DZP.Noro.4s3p.2s1p.ECP.1el.
T. Noro, M. Sekiya, T. Koga. Theor. Chim. Acc. 109 (2003) 85-90. doi:10.1007/s00214-002-0425-z
LITHIUM (4s,3p) -> [2s,1p]
*******************************************************************************
* Element : Li
* Basis : MCP segmented  (31/3)
* Effective Charge : 1.0
* Term : 2S   Valence configuration : 1s(1)
* SCF energy : -0.19632372 a.u.
* References
* Authors : Y. Sakai, E. Miyoshi, M. Klobukowski, S. Huzinaga,   [inner and valence shell]
* Journal : J. Chem. Phys. 106, 8084-8092 (1997)
* Authors : T. Noro, M. Sekiya, T. Koga,   [valence correlated set]
* Journal : Theor. Chem. Acc. 109, 85 (2003)
*******************************************************************************
     1.0   1
* s-type functions
    4    2
          9.26822410
          1.07445660
          0.05842780
          0.02176710
  -0.05373070   0.00000000
  -0.21120100   0.00000000
   0.76560650   0.00000000
   0.00000000   1.00000000
* p-type functions
    3    1
          0.52947300
          0.12080800
          0.04759000
   0.01725700
   0.59220200
   0.46198000
M1
  2
   2.71842250   1.06190560
   1.40406970   0.20408430
M2
  0
COREREP
 1.0
PROJOP
    0
    7    1
   4.95548400
  710.57931000
  103.43675000
   24.43300300
    7.30896730
    2.50689360
    0.94380030
    0.37097100
   0.00200950
   0.01482330
   0.06640480
   0.19908010
   0.38191080
   0.38846630
   0.10999670
Spectral Representation Operator
End of Spectral Representation Operator

/Be.MCP-DZP.Noro.4s3p.2s1p.ECP.2el.
T. Noro, M. Sekiya, T. Koga. Theor. Chem. Acc. 98 (1997) 25-32. doi:10.1007/s002140050274
BERYLLIUM (4s,3p) -> [2s,1p]
*******************************************************************************
* Element : Be
* Basis : MCP segmented  (31/3)
* Effective Charge : 2.0
* Term : 1S   Valence configuration : 1s(2)
* SCF energy : -0.96181074 a.u.
* Valence Correlation energy : -0.04362947 a.u.
* References
* Authors : Y. Sakai, E. Miyoshi, M. Klobukowski, S. Huzinaga,   [inner and valence shell]
* Journal : J. Chem. Phys. 106, 8084-8092 (1997)
* Authors : T. Noro, M. Sekiya, T. Koga,   [valence correlated set]
* Journal : Theor. Chem. Acc. 98, 25 (1997)
*******************************************************************************
     2.0   1
* s-type functions
    4    2
         19.75715200
          2.44490940
          0.13959400
          0.04705950
  -0.05381360   0.00000000
  -0.23218770   0.00000000
   0.68820330   0.00000000
   0.00000000   1.00000000
* p-type functions
    3    1
          3.67751800
          0.44970200
          0.12179500
   0.03465100
   0.36158800
   0.73171300
M1
  2
   5.18899210   2.02397980
   0.69860590   0.10611020
M2
  0
COREREP
 1.0
PROJOP
    0
    7    1
   9.46533800
 1311.61550000
  191.38605000
   45.27883300
   13.59732000
    4.71970130
    1.81734410
    0.73401210
   0.00196990
   0.01451970
   0.06534280
   0.19826940
   0.38353070
   0.38450430
   0.10967690
Spectral Representation Operator
End of Spectral Representation Operator

/B.MCP-DZP.Noro.4s4p2d.2s2p1d.ECP.3el.
T. Noro, M. Sekiya, T. Koga. Theor. Chem. Acc. 98 (1997) 25-32. doi:10.1007/s002140050274
BORON (4s,4p,2d) -> [2s,2p,1d]
*******************************************************************************
* Element : B
* Basis : MCP segmented  (31/31/2)
* Effective Charge : 3.0
* Term : 2P   Valence configuration : 1s(2)2p(1)
* SCF energy : -2.54577759 a.u.
* Valence Correlation energy : -0.06030928 a.u.
* References
* Authors : Y. Sakai, E. Miyoshi, M. Klobukowski, S. Huzinaga,   [inner and valence shell]
* Journal : J. Chem. Phys. 106, 8084-8092 (1997)
* Authors : T. Noro, M. Sekiya, T. Koga,   [valence correlated set]
* Journal : Theor. Chem. Acc. 98, 25 (1997)
*******************************************************************************
     3.0   2
* s-type functions
    4    2
         33.50534200
          4.26854150
          0.25387320
          0.08267550
  -0.05873310   0.00000000
  -0.25074270   0.00000000
   0.69362350   0.00000000
   0.00000000   1.00000000
* p-type functions
    4    2
          5.39389860
          1.03225680
          0.27603420
          0.08051870
   0.04383850   0.00000000
   0.24924530   0.00000000
   0.54142630   0.00000000
   0.00000000   1.00000000
* d-type functions
    2    1
          0.76249100
          0.21286200
   0.36259900
   0.76448500
M1
  2
  16.03559900   2.32232870
   0.50623320   0.09362620
M2
  0
COREREP
 1.0
PROJOP
    0
    7    1
  15.39067000
  278.78673000
   38.26329600
    8.57637490
    2.36097790
    3.42618150
    0.29298470
    0.09375140
   0.02477010
   0.16786330
   0.49775700
   0.45427320
  -0.00123540
   0.00855450
   0.00698600
Spectral Representation Operator
End of Spectral Representation Operator

/C.MCP-DZP.Noro.4s4p2d.2s2p1d.ECP.4el.
T. Noro, M. Sekiya, T. Koga. Theor. Chem. Acc. 98 (1997) 25-32. doi:10.1007/s002140050274
CARBON (4s,4p,2d) -> [2s,2p,1d]
*******************************************************************************
* Element : C
* Basis : MCP segmented  (31/31/2)
* Effective Charge : 4.0
* Term : 3P   Valence configuration : 1s(2)2p(2)
* SCF energy : -5.33556532 a.u.
* Valence Correlation energy : -0.07257289 a.u.
* References
* Authors : Y. Sakai, E. Miyoshi, M. Klobukowski, S. Huzinaga,   [inner and valence shell]
* Journal : J. Chem. Phys. 106, 8084-8092 (1997)
* Authors : T. Noro, M. Sekiya, T. Koga,   [valence correlated set]
* Journal : Theor. Chem. Acc. 98, 25 (1997)
*******************************************************************************
     4.0   2
* s-type functions
    4    2
         36.19957800
          5.17968600
          0.43654500
          0.13816150
  -0.08219840   0.00000000
  -0.25857220   0.00000000
   0.64703250   0.00000000
   0.00000000   1.00000000
* p-type functions
    4    2
          8.42813110
          1.65487700
          0.44308380
          0.12620780
   0.04967620   0.00000000
   0.26389810   0.00000000
   0.54247980   0.00000000
   0.00000000   1.00000000
* d-type functions
    2    1
          1.25146300
          0.33779400
   0.35720500
   0.77365200
M1
  2
  18.64605000   3.51210000
   0.39558950   0.05644160
M2
  0
COREREP
 1.0
PROJOP
    0
    7    1
  22.65103600
  409.06987000
   56.16342800
   12.63215600
    3.49533560
    5.40439740
    0.46071150
    0.14364200
   0.02446620
   0.16673090
   0.49850160
   0.45331670
  -0.00129740
   0.00906990
   0.00745680
Spectral Representation Operator
End of Spectral Representation Operator

/N.MCP-DZP.Noro.4s4p2d.2s2p1d.ECP.5el.
T. Noro, M. Sekiya, T. Koga. Theor. Chem. Acc. 98 (1997) 25-32. doi:10.1007/s002140050274
NITROGEN (4s,4p,2d) -> [2s,2p,1d]
*******************************************************************************
* Element : N
* Basis : MCP segmented  (31/31/2)
* Effective Charge : 5.0
* Term : 4S   Valence configuration : 1s(2)2p(3)
* SCF energy : -9.68276973 a.u.
* Valence Correlation energy : -0.08142259 a.u.
* References
* Authors : Y. Sakai, E. Miyoshi, M. Klobukowski, S. Huzinaga,   [inner and valence shell]
* Journal : J. Chem. Phys. 106, 8084-8092 (1997)
* Authors : T. Noro, M. Sekiya, T. Koga,   [valence correlated set]
* Journal : Theor. Chem. Acc. 98, 25 (1997)
*******************************************************************************
     5.0   2
* s-type functions
    4    2
         50.95824100
          7.39423700
          0.62445100
          0.19434270
  -0.08339300   0.00000000
  -0.26448990   0.00000000
   0.64839870   0.00000000
   0.00000000   1.00000000
* p-type functions
    4    2
         12.03645500
          2.40041700
          0.64243000
          0.17985000
   0.05218680   0.00000000
   0.27436130   0.00000000
   0.54251780   0.00000000
   0.00000000   1.00000000
* d-type functions
    2    1
          1.87338400
          0.49392300
   0.35330600
   0.78005000
M1
  2
  27.63930000   5.02210000
   0.31915670   0.05248400
M2
  0
COREREP
 1.0
PROJOP
    0
    7    1
  31.25800000
  563.50938000
   77.38753500
   17.44854900
    4.84350840
    7.82095670
    0.66330180
    0.20294590
   0.02422670
   0.16571010
   0.49798870
   0.45110530
   0.00133460
   0.00941090
   0.00777950
Spectral Representation Operator
End of Spectral Representation Operator

/O.MCP-DZP.Noro.4s4p2d.2s2p1d.ECP.6el.
T. Noro, M. Sekiya, T. Koga. Theor. Chem. Acc. 98 (1997) 25-32. doi:10.1007/s002140050274
OXYGEN (4s,4p,2d) -> [2s,2p,1d]
*******************************************************************************
* Element : O
* Basis : MCP segmented  (31/31/2)
* Effective Charge : 6.0
* Term : 3P   Valence configuration : 1s(2)2p(4)
* SCF energy : -15.71356426 a.u.
* Valence Correlation energy : -0.11070192 a.u.
* References
* Authors : Y. Sakai, E. Miyoshi, M. Klobukowski, S. Huzinaga,   [inner and valence shell]
* Journal : J. Chem. Phys. 106, 8084-8092 (1997)
* Authors : T. Noro, M. Sekiya, T. Koga,   [valence correlated set]
* Journal : Theor. Chem. Acc. 98, 25 (1997)
*******************************************************************************
     6.0   2
* s-type functions
    4    2
         68.22300000
          9.99925000
          0.84936800
          0.26144700
  -0.08369750   0.00000000
  -0.26941880   0.00000000
   0.65251380   0.00000000
   0.00000000   1.00000000
* p-type functions
    4    2
         15.51580700
          3.12594600
          0.82453700
          0.22113600
   0.05562380   0.00000000
   0.29047130   0.00000000
   0.53956070   0.00000000
   0.00000000   1.00000000
* d-type functions
    2    1
          2.61563900
          0.68851800
   0.35203900
   0.78125100
M1
  2
  40.64864000   5.17523000
   0.28259840   0.03639180
M2
  0
COREREP
 1.0
PROJOP
    0
    7    1
  41.33731400
  743.24114000
  102.08699000
   23.05896500
    6.41618600
   10.67802700
    0.90653200
    0.27406100
   0.02413310
   0.16555330
   0.49961640
   0.45179500
  -0.00137670
   0.00976130
   0.00799280
Spectral Representation Operator
End of Spectral Representation Operator

/F.MCP-DZP.Noro.4s4p2d.2s2p1d.ECP.7el.
T. Noro, M. Sekiya, T. Koga. Theor. Chem. Acc. 98 (1997) 25-32. doi:10.1007/s002140050274
FLUORINE (4s,4p,2d) -> [2s,2p,1d]
*******************************************************************************
* Element : F
* Basis : MCP segmented  (31/31/2)
* Effective Charge : 7.0
* Term : 2P   Valence configuration : 1s(2)2p(5)
* SCF energy : -23.97534882 a.u.
* Valence Correlation energy : -0.1375555 a.u.
* References
* Authors : Y. Sakai, E. Miyoshi, M. Klobukowski, S. Huzinaga,   [inner and valence shell]
* Journal : J. Chem. Phys. 106, 8084-8092 (1997)
* Authors : T. Noro, M. Sekiya, T. Koga,   [valence correlated set]
* Journal : Theor. Chem. Acc. 98, 25 (1997)
*******************************************************************************
     7.0   2
* s-type functions
    4    2
         87.94764700
         12.98608500
          1.10574440
          0.33734000
  -0.08459230   0.00000000
  -0.27375230   0.00000000
   0.65608500   0.00000000
   0.00000000   1.00000000
* p-type functions
    4    2
         19.73180300
          4.00408000
          1.04870020
          0.27462770
   0.05901220   0.00000000
   0.30134500   0.00000000
   0.53782970   0.00000000
   0.00000000   1.00000000
* d-type functions
    2    1
          3.49586800
          0.91603000
   0.34963700
   0.78373700
M1
  2
  52.02781200   6.20635390
   0.24505140   0.03285480
M2
  0
COREREP
 1.0
PROJOP
    0
    7    1
  52.76550000
  947.61572000
  130.18410000
   29.44885300
    8.20894150
   13.97557000
    1.18439010
    0.35459670
   0.02401760
   0.16511310
   0.49980400
   0.45149800
  -0.00141120
   0.01005990
   0.00820250
Spectral Representation Operator
End of Spectral Representation Operator

/Ne.MCP-DZP.Noro.4s4p2d.2s2p1d.ECP.8el.
T. Noro, M. Sekiya, T. Koga. Theor. Chem. Acc. 98 (1997) 25-32. doi:10.1007/s002140050274
NEON (4s,4p,2d) -> [2s,2p,1d]
*******************************************************************************
* Element : Ne
* Basis : MCP segmented  (31/31/2)
* Effective Charge : 8.0
* Term : 1S   Valence configuration : 1s(2)2p(6)
* SCF energy : -34.77988686 a.u.
* Valence Correlation energy : -0.16592188 a.u.
* References
* Authors : Y. Sakai, E. Miyoshi, M. Klobukowski, S. Huzinaga,   [inner and valence shell]
* Journal : J. Chem. Phys. 106, 8084-8092 (1997)
* Authors : T. Noro, M. Sekiya, T. Koga,   [valence correlated set]
* Journal : Theor. Chem. Acc. 98, 25 (1997)
*******************************************************************************
     8.0   2
* s-type functions
    4    2
        153.29425000
         20.44460500
          1.27421960
          0.38758430
  -0.06204030   0.00000000
  -0.28256020   0.00000000
   0.69518250   0.00000000
   0.00000000   1.00000000
* p-type functions
    4    2
         24.61984200
          5.02277090
          1.31065690
          0.33828850
   0.06176840   0.00000000
   0.30746950   0.00000000
   0.53682130   0.00000000
   0.00000000   1.00000000
* d-type functions
    2    1
          4.52662700
          1.17755200
   0.34692600
   0.78682300
M1
  2
  54.07667500   7.61297270
   0.20441770   0.02636010
M2
  0
COREREP
 1.0
PROJOP
    0
    7    1
  65.54485000
 1175.86970000
  161.56796000
   36.59069000
   10.21284500
   17.71163300
    1.49732990
    0.44467000
   0.02394740
   0.16489090
   0.50015820
   0.45096870
  -0.00143230
   0.01025660
   0.00835280
Spectral Representation Operator
End of Spectral Representation Operator

/Na.MCP-DZP.Anjima.6s7p.3s2p.ECP.9el.
H. Anjima, S. Tsukamoto, H. Mori, H. Mine, M. Klobukowski, E. Miyoshi. J. Comput. Chem. 28 (2007) 2424-2430. doi:10.1002/jcc.20612
SODIUM (6s,7p) -> [3s,2p]
*******************************************************************************
* Element : Na
* Basis : MCP segmented  (551/43)
* Effective Charge : 9.0
* Term : 2S   Valence configuration : 1s(2)2p(6)2s(1)
* SCF energy : -47.68815682 a.u.
* References
* Authors : H. Anjima, S. Tsukamoto, H. Mori, H. Mine, M. Klobukowski, E. Miyoshi,   [inner and valence shell]
* Journal : J. Comput. Chem. 28, 2424-2430 (2007)
* Authors : T. Noro, M. Sekiya, T. Koga,   [valence correlated set]
* Journal : Theor. Chem. Acc. 109, 85 (2003)
*******************************************************************************
     9.0   1
* s-type functions
    6    3
        190.58198000
         25.29215000
          1.60633600
          0.68383580
          0.05243890
          0.02044730
  -0.06512850   0.00901330   0.00000000
  -0.28698360   0.04149020   0.00000000
   0.63848260  -0.11212170   0.00000000
   0.41620290  -0.18361120   0.00000000
   0.04565410   0.72718920   0.00000000
   0.00000000   0.00000000   1.00000000
* p-type functions
    7    2
         32.88733900
          6.86830920
          1.86585380
          0.52215510
          0.55577500
          0.09447300
          0.04036000
   0.05612640   0.00000000
   0.29609200   0.00000000
   0.54260900   0.00000000
   0.34714390   0.00000000
   0.00000000  -0.03670100
   0.00000000   0.64370300
   0.00000000   0.41945500
M1
  3
 585.45929000  57.82101900  19.71450000
   0.08725940   0.07536270   0.03811140
M2
  3
  10.348078e2 531.52041000   2.64567520
   9.29870360   0.23437000   0.01165350
COREREP
 1.0
PROJOP
    0
    7    1
  81.13572800
 1511.21880000
  202.99137000
   45.52568100
   12.64420200
   21.74653000
    1.92086790
    0.61056960
   0.02329970
   0.16164580
   0.49741480
   0.45714290
  -0.00156340
   0.01085950
   0.00877020
Spectral Representation Operator
End of Spectral Representation Operator

/Mg.MCP-DZP.Anjima.6s6p.3s2p.ECP.10el.
H. Anjima, S. Tsukamoto, H. Mori, H. Mine, M. Klobukowski, E. Miyoshi. J. Comput. Chem. 28 (2007) 2424-2430. doi:10.1002/jcc.20612
MAGNESIUM (6s,6p) -> [3s,2p]
*******************************************************************************
* Element : Mg
* Basis : MCP segmented  (551/42)
* Effective Charge : 10.0
* Term : 1S   Valence configuration : 1s(2)2p(6)2s(2)
* SCF energy : -62.95909849 a.u.
* Valence Correlation energy : -0.03153174 a.u.
* References
* Authors : H. Anjima, S. Tsukamoto, H. Mori, H. Mine, M. Klobukowski, E. Miyoshi,   [inner and valence shell]
* Journal : J. Comput. Chem. 28, 2424-2430 (2007)
* Authors : M. Sekiya, T. Noro, T. Koga, H. Matsuyama,   [valence correlated set]
* Journal : J. Mol. Struct. (Theochem) 451, 51 (1998)
*******************************************************************************
    10.0   1
* s-type functions
    6    3
        228.58527000
         30.45697500
          1.97532460
          0.66698260
          0.09767590
          0.03553150
  -0.06675120   0.01182350   0.00000000
  -0.29958160   0.05605200   0.00000000
   0.73235230  -0.19997920   0.00000000
   0.34879460  -0.18912570   0.00000000
   0.00045360   0.73075110   0.00000000
   0.00000000   0.00000000   1.00000000
* p-type functions
    6    2
         45.54391200
          9.51012300
          2.61847980
          0.75584410
          0.14787000
          0.05515500
   0.04879940   0.00000000
   0.27554300   0.00000000
   0.54707550   0.00000000
   0.35771450   0.00000000
   0.00000000   0.69310700
   0.00000000   0.36989900
M1
  3
 635.92279000  67.18713700  27.53051400
   0.07729590   0.06675990   0.03444470
M2
  3
  11.527313e2 776.82481000   3.22174950
   8.50792120   0.21205450   0.00949060
COREREP
 1.0
PROJOP
    0
    7    1
  98.24808400
 1793.50340000
  242.56680000
   54.57753100
   15.20191000
   26.09297500
    2.38868520
    0.79750600
   0.02328750
   0.16109850
   0.49614580
   0.45814220
  -0.00165430
   0.01123130
   0.00882870
Spectral Representation Operator
End of Spectral Representation Operator

/Al.MCP-DZP.Sekiya.4s4p3d.2s2p1d.ECP.3el.
M. Sekiya, T. Noro, T. Koga, H. Matsuyama. J. Mol. Struct. THEOCHEM 451 (1998) 51-60. doi:10.1016/s0166-1280(98)00175-4
ALUMINIUM (4s,4p,3d) -> [2s,2p,1d]
*******************************************************************************
* Element : Al
* Basis : MCP segmented  (31/31/3)
* Effective Charge : 3.0
* Term : 2P   Valence configuration : 1s(2)2p(1)
* SCF energy : -1.87947754 a.u.
* Valence Correlation energy : -0.04904615 a.u.
* References
* Authors : Y. Sakai, E. Miyoshi, M. Klobukowski, S. Huzinaga,   [inner and valence shell]
* Journal : J. Chem. Phys. 106, 8084-8092 (1997)
* Authors : M. Sekiya, T. Noro, T. Koga, H. Matsuyama,   [valence correlated set]
* Journal : J. Mol. Struct. (Theochem) 451, 51 (1998)
*******************************************************************************
     3.0   2
* s-type functions
    4    2
         61.01342500
          1.66771840
          0.14178170
          0.05095710
   0.07108870   0.00000000
  -0.39365650   0.00000000
   0.78872580   0.00000000
   0.00000000   1.00000000
* p-type functions
    4    2
         16.73809500
          3.04805370
          0.17760530
          0.05105210
  -0.04785470   0.00000000
  -0.12752240   0.00000000
   0.55703530   0.00000000
   0.00000000   1.00000000
* d-type functions
    3    1
          2.15045100
          0.32522700
          0.10864000
   0.02721900
   0.47918400
   0.62932000
M1
  3
 131.69528000   5.21732400   2.33145920
   1.12867090   2.01558230   0.12157940
M2
  3
 914.22726000 207.75601000   1.25107970
  38.02286100  14.02683300   0.11166380
COREREP
 1.0
PROJOP
    1
    7    2
  76.05130000   6.38391000
 2043.80760000
  280.93674000
   63.78911500
   17.88862400
   30.61927200
    2.88683820
    0.99935000
   0.02330610   0.00660390
   0.16139190   0.04573120
   0.49584340   0.14049960
   0.45690620   0.12946660
  -0.00172390   0.09566240
   0.01142760  -0.63414550
   0.00865990  -0.48055820
    5    1
   4.18379000
  108.96206000
   23.63035300
    7.10773220
    2.36606390
    0.80250180
   0.01824310
   0.12121050
   0.35717810
   0.49939060
   0.23093030
Spectral Representation Operator
End of Spectral Representation Operator

/Si.MCP-DZP.Sekiya.4s4p3d.2s2p1d.ECP.4el.
M. Sekiya, T. Noro, T. Koga, H. Matsuyama. J. Mol. Struct. THEOCHEM 451 (1998) 51-60. doi:10.1016/s0166-1280(98)00175-4
SILICON (4s,4p,3d) -> [2s,2p,1d]
*******************************************************************************
* Element : Si
* Basis : MCP segmented  (31/31/3)
* Effective Charge : 4.0
* Term : 3P   Valence configuration : 1s(2)2p(2)
* SCF energy : -3.71731711 a.u.
* Valence Correlation energy : -0.06747439 a.u.
* References
* Authors : Y. Sakai, E. Miyoshi, M. Klobukowski, S. Huzinaga,   [inner and valence shell]
* Journal : J. Chem. Phys. 106, 8084-8092 (1997)
* Authors : M. Sekiya, T. Noro, T. Koga, H. Matsuyama,   [valence correlated set]
* Journal : J. Mol. Struct. (Theochem) 451, 51 (1998)
*******************************************************************************
     4.0   2
* s-type functions
    4    2
         70.67891000
          2.07634800
          0.20335900
          0.13816150
   0.05714510   0.00000000
  -0.42826180   0.00000000
   0.45774670   0.00000000
   0.00000000   1.00000000
* p-type functions
    4    2
         21.19006000
          3.96269900
          0.26056700
          0.07680330
  -0.05189530   0.00000000
  -0.16851950   0.00000000
   0.60674120   0.00000000
   0.00000000   1.00000000
* d-type functions
    3    1
          2.93987300
          0.47076200
          0.15722200
   0.03185700
   0.48010500
   0.62713900
M1
  3
 134.98630000   4.33571370   4.54790230
   0.83001080   1.47547010  -0.08634170
M2
  3
 854.06377000 211.97610000   0.99809170
  30.45688400   9.55689100   0.08651300
COREREP
 1.0
PROJOP
    1
    7    2
  82.57488000   7.38783600
 2387.95740000
  328.28020000
   74.58612300
   20.94412300
   35.82222300
    3.44462050
    1.22228350
   0.02313730   0.00671920
   0.16045020   0.04659550
   0.49462160   0.14364040
   0.45858020   0.13317380
  -0.00179650   0.09806900
   0.01181110  -0.64476970
   0.00862200  -0.47067890
    5    1
   5.10726480
  134.82278000
   29.36148100
    8.89063490
    3.00034930
    1.03760180
   0.01731180
   0.11697480
   0.35318630
   0.50346340
   0.22874710
Spectral Representation Operator
End of Spectral Representation Operator

/P.MCP-DZP.Sekiya.4s4p3d.2s2p1d.ECP.5el.
M. Sekiya, T. Noro, T. Koga, H. Matsuyama. J. Mol. Struct. THEOCHEM 451 (1998) 51-60. doi:10.1016/s0166-1280(98)00175-4
PHOSPHORUS (4s,4p,3d) -> [2s,2p,1d]
*******************************************************************************
* Element : P
* Basis : MCP segmented  (31/31/3)
* Effective Charge : 5.0
* Term : 4S   Valence configuration : 1s(2)2p(3)
* SCF energy : -6.33528545 a.u.
* Valence Correlation energy : -0.08349258 a.u.
* References
* Authors : Y. Sakai, E. Miyoshi, M. Klobukowski, S. Huzinaga,   [inner and valence shell]
* Journal : J. Chem. Phys. 106, 8084-8092 (1997)
* Authors : M. Sekiya, T. Noro, T. Koga, H. Matsuyama,   [valence correlated set]
* Journal : J. Mol. Struct. (Theochem) 451, 51 (1998)
*******************************************************************************
     5.0   2
* s-type functions
    4    2
         81.25610300
          2.51787800
          0.27338900
          0.10006350
   0.03518400   0.00000000
  -0.43408370   0.00000000
   0.76857010   0.00000000
   0.00000000   1.00000000
* p-type functions
    4    2
         26.07870000
          4.97449540
          0.35323730
          0.10560030
  -0.04544400   0.00000000
  -0.15889780   0.00000000
   0.60566870   0.00000000
   0.00000000   1.00000000
* d-type functions
    3    1
          3.83420700
          0.63762200
          0.21286100
   0.03478200
   0.48201300
   0.62444800
M1
  3
 126.99655000   5.12503940   2.84904140
   0.54765150   1.14269650  -0.06703160
M2
  3
  11.691293e2 184.39113000   1.32677630
  15.64780600   5.18971510   0.04728360
COREREP
 1.0
PROJOP
    1
    7    2
  87.96668700   8.26221000
 2759.33690000
  379.37300000
   86.24195900
   24.24595200
   41.46793900
    4.04932730
    1.46209090
   0.02298840   0.00681550
   0.15961620   0.04732200
   0.49352880   0.14631840
   0.46007650   0.13640070
  -0.00185870   0.10014080
   0.01216850  -0.65558570
   0.00855390  -0.46084780
    5    1
   5.94104500
  163.57377000
   35.74203600
   10.88146500
    3.71328930
    1.30400870
   0.01653280
   0.11332410
   0.34933110
   0.50656660
   0.22820300
Spectral Representation Operator
End of Spectral Representation Operator

/S.MCP-DZP.Sekiya.4s4p3d.2s2p1d.ECP.6el.
M. Sekiya, T. Noro, T. Koga, H. Matsuyama. J. Mol. Struct. THEOCHEM 451 (1998) 51-60. doi:10.1016/s0166-1280(98)00175-4
SULFUR (4s,4p,3d) -> [2s,2p,1d]
*******************************************************************************
* Element : S
* Basis : MCP segmented  (31/31/3)
* Effective Charge : 6.0
* Term : 3P   Valence configuration : 1s(2)2p(4)
* SCF energy : -9.94718777 a.u.
* Valence Correlation energy : -0.1081414 a.u.
* References
* Authors : Y. Sakai, E. Miyoshi, M. Klobukowski, S. Huzinaga,   [inner and valence shell]
* Journal : J. Chem. Phys. 106, 8084-8092 (1997)
* Authors : M. Sekiya, T. Noro, T. Koga, H. Matsuyama,   [valence correlated set]
* Journal : J. Mol. Struct. (Theochem) 451, 51 (1998)
*******************************************************************************
     6.0   2
* s-type functions
    4    2
         92.69368900
          2.99532660
          0.35397240
          0.12962170
   0.02600000   0.00000000
  -0.46400000   0.00000000
   0.76900000   0.00000000
   0.00000000   1.00000000
* p-type functions
    4    2
         31.77730900
          6.16054770
          0.45462030
          0.13024690
  -0.05600000   0.00000000
  -0.18400000   0.00000000
   0.61400000   0.00000000
   0.00000000   1.00000000
* d-type functions
    3    1
          4.91298100
          0.81632900
          0.27197200
   0.03702000
   0.48037700
   0.62584500
M1
  3
 115.59165000   5.97114120   2.85909020
   0.60336900   0.95621820  -0.07841180
M2
  3
  20.626801e2 148.71381000   1.64401040
   6.29347070   5.71991100   0.03813890
COREREP
 1.0
PROJOP
    1
    7    2
  96.60467200   9.45450450
 3158.03290000
  434.22727000
   98.75946400
   27.79521700
   47.54841400
    4.70344450
    1.72013780
   0.02285570   0.00689740
   0.15886940   0.04794350
   0.49254160   0.14863890
   0.46142780   0.13924940
  -0.00191290   0.10196350
   0.01248980  -0.66573470
   0.00847600  -0.45178650
    5    1
   7.01663550
  193.10309000
   42.29557200
   12.92617600
    4.44630820
    1.57536380
   0.01615640
   0.11184670
   0.34919430
   0.50941850
   0.22319220
Spectral Representation Operator
End of Spectral Representation Operator

/Cl.MCP-DZP.Sekiya.4s4p3d.2s2p1d.ECP.7el.
M. Sekiya, T. Noro, T. Koga, H. Matsuyama. J. Mol. Struct. THEOCHEM 451 (1998) 51-60. doi:10.1016/s0166-1280(98)00175-4
CHLORINE (4s,4p,3d) -> [2s,2p,1d]
*******************************************************************************
* Element : Cl
* Basis : MCP segmented  (31/31/3)
* Effective Charge : 7.0
* Term : 2P   Valence configuration : 1s(2)2p(5)
* SCF energy : -14.81652207 a.u.
* Valence Correlation energy : -0.13442071 a.u.
* References
* Authors : Y. Sakai, E. Miyoshi, M. Klobukowski, S. Huzinaga,   [inner and valence shell]
* Journal : J. Chem. Phys. 106, 8084-8092 (1997)
* Authors : M. Sekiya, T. Noro, T. Koga, H. Matsuyama,   [valence correlated set]
* Journal : J. Mol. Struct. (Theochem) 451, 51 (1998)
*******************************************************************************
     7.0   2
* s-type functions
    4    2
        104.97889000
          3.50782000
          0.44380400
          0.16275300
   0.01123430   0.00000000
  -0.52552060   0.00000000
   0.79309400   0.00000000
   0.00000000   1.00000000
* p-type functions
    4    2
         37.78685000
          7.41799800
          0.56676530
          0.16001640
  -0.06787800   0.00000000
  -0.22000180   0.00000000
   0.61435690   0.00000000
   0.00000000   1.00000000
* d-type functions
    3    1
          6.12933800
          1.02429600
          0.34000600
   0.03897900
   0.47968000
   0.62664200
M1
  3
 112.05427000   6.86097770   2.78942900
   0.37923920   0.81531800  -0.09312150
M2
  3
  16.675256e2 107.06773000   3.57455280
   5.02289320   4.69240790   0.14140620
COREREP
 1.0
PROJOP
    1
    7    2
 104.88440000  10.60750000
 3584.29220000
  492.87736000
  112.14646000
   31.59386700
   54.06609800
    5.40564400
    1.99510560
   0.02273480   0.00696620
   0.15818510   0.04846970
   0.49162400   0.15063920
   0.46268290   0.14177130
  -0.00196170   0.10355440
   0.01279160  -0.67525140
   0.00839920  -0.44338510
    5    1
   8.07220000
  223.90776000
   49.16041100
   15.07759300
    5.22226180
    1.86247030
   0.01596170
   0.11122720
   0.35014970
   0.51156470
   0.21760590
Spectral Representation Operator
End of Spectral Representation Operator

/Ar.MCP-DZP.Sekiya.4s4p3d.2s2p1d.ECP.8el.
M. Sekiya, T. Noro, T. Koga, H. Matsuyama. J. Mol. Struct. THEOCHEM 451 (1998) 51-60. doi:10.1016/s0166-1280(98)00175-4
ARGON (4s,4p,3d) -> [2s,2p,1d]
*******************************************************************************
* Element : Ar
* Basis : MCP segmented  (31/31/3)
* Effective Charge : 8.0
* Term : 1S   Valence configuration : 1s(2)2p(6)
* SCF energy : -20.7613479 a.u.
* Valence Correlation energy : -0.16463388 a.u.
* References
* Authors : Y. Sakai, E. Miyoshi, M. Klobukowski, S. Huzinaga,   [inner and valence shell]
* Journal : J. Chem. Phys. 106, 8084-8092 (1997)
* Authors : M. Sekiya, T. Noro, T. Koga, H. Matsuyama,   [valence correlated set]
* Journal : J. Mol. Struct. (Theochem) 451, 51 (1998)
*******************************************************************************
     8.0   2
* s-type functions
    4    2
        118.11521000
          4.05586480
          0.54293850
          0.19926560
   0.01822520   0.00000000
  -0.38795510   0.00000000
   0.74056490   0.00000000
   0.00000000   1.00000000
* p-type functions
    4    2
         44.22481200
          8.77077120
          0.69053430
          0.19424850
  -0.01504160   0.00000000
  -0.08304560   0.00000000
   0.64221180   0.00000000
   0.00000000   1.00000000
* d-type functions
    3    1
          7.46160800
          1.25850100
          0.41553000
   0.04070300
   0.47985500
   0.62691300
M1
  3
 309.79693000  14.69381000   1.87082500
   0.32088670   0.37433290   0.08141690
M2
  3
 646.14760000 426.23670000   4.13137150
   8.71372630   4.53538390   0.07915090
COREREP
 1.0
PROJOP
    1
    7    2
 118.61035000  12.32215000
 4037.33960000
  555.23269000
  126.38572000
   35.63779700
   61.01759400
    6.15644340
    2.28713180
   0.02262950   0.00702620
   0.15758310   0.04892750
   0.49080450   0.15238840
   0.46379330   0.14400180
  -0.00200420   0.10495570
   0.01306170  -0.68400820
   0.00832070  -0.43573490
    5    1
   9.57146270
  263.84309000
   58.02922200
   17.85902700
    6.23208870
    2.25024220
   0.01513650
   0.10687530
   0.34330140
   0.51300120
   0.22446740
Spectral Representation Operator
End of Spectral Representation Operator

/K.MCP-DZP.Anjima.7s8p.3s2p.ECP.9el.
H. Anjima, S. Tsukamoto, H. Mori, H. Mine, M. Klobukowski, E. Miyoshi. J. Comput. Chem. 28 (2007) 2424-2430. doi:10.1002/jcc.20612
POTASSIUM (7s,8p) -> [3s,2p]
*******************************************************************************
* Element : K
* Basis : MCP segmented  (661/53)
* Effective Charge : 9.0
* Term : 2S   Valence configuration : 1s(2)2p(6)2s(1)
* SCF energy : -27.99808634 a.u.
* References
* Authors : H. Anjima, S. Tsukamoto, H. Mori, H. Mine, M. Klobukowski, E. Miyoshi,   [inner and valence shell]
* Journal : J. Comput. Chem. 28, 2424-2430 (2007)
* Authors : T. Noro, M. Sekiya, T. Koga,   [valence correlated set]
* Journal : Theor. Chem. Acc. 109, 85 (2003)
*******************************************************************************
     9.0   1
* s-type functions
    7    3
        135.63561000
          5.66797250
          2.42664100
          0.72689430
          0.28220800
          0.03361420
          0.01391600
   0.13702030  -0.02167270   0.00000000
  -0.36257830   0.08843320   0.00000000
  -0.29277790   0.04827520   0.00000000
   0.79912390  -0.20176440   0.00000000
   0.45254950  -0.25762480   0.00000000
   0.01986720   0.84248580   0.00000000
   0.00000000   0.00000000   1.00000000
* p-type functions
    8    2
         33.93153000
          6.24540960
          2.02800670
          0.65699960
          0.22232050
          0.25338200
          0.05612100
          0.02517000
  -0.09938950   0.00000000
  -0.28379340   0.00000000
   0.23114610   0.00000000
   0.62491620   0.00000000
   0.33724510   0.00000000
   0.00000000  -0.07299400
   0.00000000   0.69257700
   0.00000000   0.38233200
M1
  3
 264.93730000   9.00873700   3.30959650
   0.64063860   0.49787260   0.01265660
M2
  3
  16.588629e2 708.09116000   4.33889850
  23.87720300   3.35308570   0.33064910
COREREP
 1.0
PROJOP
    1
   10    2
 268.36990000  29.20982800
 5242.44070000
  690.58143000
  153.78629000
   42.86962600
   69.76982000
    7.20773400
    2.83141640
    4.72270370
    0.68353380
    0.26309680
   0.02076870   0.00657290
   0.14572680   0.04611970
   0.47230420   0.14947520
   0.49092320   0.15536780
  -0.00320420   0.10316390
   0.02020530  -0.65054730
   0.01433470  -0.46153350
   0.00435940   0.00224650
  -0.01531960  -0.00789460
  -0.00812040  -0.00418470
    7    1
  23.06219200
  176.58454000
   38.03642100
   11.24585000
    3.70030350
    1.44738900
    0.52368420
    0.19066070
   0.03630650
   0.22236070
   0.52941130
   0.39568570
   0.00664500
   0.01114940
   0.00448660
Spectral Representation Operator
End of Spectral Representation Operator

/Ca.MCP-DZP.Anjima.7s7p.3s2p.ECP.10el.
H. Anjima, S. Tsukamoto, H. Mori, H. Mine, M. Klobukowski, E. Miyoshi. J. Comput. Chem. 28 (2007) 2424-2430. doi:10.1002/jcc.20612
CALCIUM (7s,7p) -> [3s,2p]
*******************************************************************************
* Element : Ca
* Basis : MCP segmented  (661/52)
* Effective Charge : 10.0
* Term : 1S   Valence configuration : 1s(2)2p(6)2s(2)
* SCF energy : -36.38052312 a.u.
* Valence Correlation energy : -0.02473 a.u.
* References
* Authors : H. Anjima, S. Tsukamoto, H. Mori, H. Mine, M. Klobukowski, E. Miyoshi,   [inner and valence shell]
* Journal : J. Comput. Chem. 28, 2424-2430 (2007)
* Authors : M. Sekiya, T. Noro, Y. Osanai, T. Koga,   [valence correlated set]
* Journal : Theor. Chem. Acc. 106, 297 (2001)
*******************************************************************************
    10.0   1
* s-type functions
    7    3
        151.57552000
          6.35278320
          2.49789940
          0.89442680
          0.36078010
          0.05993950
          0.02397230
   0.14799500  -0.02873900   0.00000000
  -0.41872080   0.11901050   0.00000000
  -0.30263210   0.07144400   0.00000000
   0.82671020  -0.28223950   0.00000000
   0.46145840  -0.29829180   0.00000000
   0.02208980   0.75920490   0.00000000
   0.00000000   0.00000000   1.00000000
* p-type functions
    7    2
         42.52201900
          8.04307370
          2.63101280
          0.86422260
          0.29962710
          0.07550300
          0.02707700
  -0.09929820   0.00000000
  -0.29610800   0.00000000
   0.17599150   0.00000000
   0.64447730   0.00000000
   0.34741600   0.00000000
   0.00000000   0.84971300
   0.00000000   0.19387000
M1
  3
 257.17081000  10.36515100  25.60159300
   0.64904450   0.48105740   0.00204360
M2
  3
  15.196495e2  46.224767e2   5.66419340
  12.74242500   0.95042250   0.24868480
COREREP
 1.0
PROJOP
    1
   10    2
 300.34640000  33.93690000
 5903.41430000
  773.82933000
  171.92855000
   47.88637700
   77.92160300
    8.12268500
    3.22020920
    5.43897190
    0.81487640
    0.32805790
   0.02062090   0.00660210
   0.14480510   0.04636190
   0.47108930   0.15082740
   0.49286440   0.15779910
  -0.00327200   0.10401690
   0.02057090  -0.65394530
   0.01442710  -0.45863680
   0.00436700   0.00242630
  -0.01505650  -0.00836510
  -0.00734970  -0.00408340
    7    1
  27.29158000
  202.59132000
   43.70604600
   12.97832500
    4.30394220
    1.72417530
    0.64133080
    0.24051140
   0.03526070
   0.21824250
   0.52734270
   0.39934940
   0.00734900
   0.01194100
   0.00412450
Spectral Representation Operator
End of Spectral Representation Operator

/Ti.MCP-DZP.Noro.6s6p6d.2s2p3d.ECP.10el.
T. Noro, M. Sekiya, T. Koga, H. Matsuyama. Theor. Chem. Acc. 104 (2000) 146-152. doi:10.1007/s002140000126
TITANIUM (6s,6p,6d) -> [2s,2p,3d]
*******************************************************************************
* Element : Ti
* Basis : MCP segmented  (51/42/411)
* Effective Charge : 10.0
* Term : 3F   Valence configuration : 1s(2)3d(2)
* SCF energy : -37.87512204 a.u.
* Valence Correlation energy : -0.03076931 a.u.
* References
* Authors : Y. Sakai, E. Miyoshi, M. Klobukowski, S. Huzinaga,   [inner and valence shell]
* Journal : J. Comput. Chem. 8, 256-264 (1987)
* Authors : T. Noro, M. Sekiya, T. Koga, H. Matsuyama,   [valence correlated set]
* Journal : Theor. Chem. Acc. 104, 146 (2000)
*******************************************************************************
    10.0   2
* s-type functions
    6    2
        177.26900000
          6.85077000
          0.98468400
          0.43576600
          0.06935440
          0.02715740
  -0.02368800   0.00000000
   0.13141150   0.00000000
  -0.24001020   0.00000000
  -0.22170710   0.00000000
   0.65987020   0.00000000
   0.00000000   1.00000000
* p-type functions
    6    2
         73.75660000
         15.08480000
          1.37036000
          0.43543900
          0.11685900
          0.04468700
  -0.07882710   0.00000000
  -0.27281450   0.00000000
   0.67515230   0.00000000
   0.41104590   0.00000000
   0.00000000   0.73829000
   0.00000000   0.31704100
* d-type functions
    6    3
         16.33510000
          3.99368000
          1.21301000
          0.36583900
          0.10309900
          0.05154950
   0.04078330   0.00000000   0.00000000
   0.19585840   0.00000000   0.00000000
   0.42237880   0.00000000   0.00000000
   0.46467540   0.00000000   0.00000000
   0.00000000   1.00000000   0.00000000
   0.00000000   0.00000000   1.00000000
M1
  3
 234.16770000   7.21721700   1.39479400
   0.57574500   0.27313440   0.05662780
M2
  3
  16.164383e2  39.98456800   0.87459910
  62.19972000   5.04020700   0.06756360
COREREP
 1.0
PROJOP
    1
   10    3
 366.22137000  42.47665200   5.40002000
 6457.64350000
  888.77241000
  202.61383000
   57.43678300
   92.92071100
    9.89517150
    3.96534140
    6.94432200
    1.06143880
    0.41303990
   0.02087310   0.00675330   0.00270800
   0.14668100   0.04745740   0.01902990
   0.47163440   0.15259350   0.06118820
   0.48782460   0.15783170   0.06328870
  -0.00342690   0.10937340   0.04481630
   0.02097970  -0.66958290  -0.27436480
   0.01394140  -0.44495030  -0.18232050
   0.00466720   0.00239300  -0.24049580
  -0.01573860  -0.00806970   0.81099770
  -0.00784570  -0.00402280   0.40428310
    7    1
  35.22096000
  250.33874000
   54.57096100
   16.38289100
    5.50524930
    2.28868350
    0.84508870
    0.30890920
   0.03449110
   0.21646600
   0.52839370
   0.39647520
   0.00763630
   0.01190520
   0.00421140
Spectral Representation Operator
End of Spectral Representation Operator

/Ga.MCP-DZP.Sekiya.7s6p7d.3s3p2d.ECP.13el.
M. Sekiya, T. Noro, Y. Osanai, T. Koga. Theor. Chem. Acc. 106 (2001) 297-300. doi:10.1007/s002140100278
GALLIUM (7s,6p,7d) -> [3s,3p,2d]
*******************************************************************************
* Element : Ga
* Basis : MCP segmented  (412/312/52)
* Effective Charge : 13.0
* Term : 2P   Valence configuration : 1s(2)2p(1)
* SCF energy : -78.37580751 a.u.
* Valence Correlation energy : -0.04607909 a.u.
* References
* Authors : E. Miyoshi, Y. Sakai, K. Tanaka, M. Masamura,   [inner and valence shell]
* Journal : J. Mol. Struct. (THEOCHEM), 451, 73-79 (1998)
* Authors : M. Sekiya, T. Noro, Y. Osanai, T. Koga,   [valence correlated set]
* Journal : Theor. Chem. Acc. 106, 297 (2001)
*******************************************************************************
    13.0   2
* s-type functions
    7    3
        400.40663000
         12.19355100
          8.85606510
          1.66709830
          0.18250160
          0.07600030
          0.04347160
  -0.02889970   0.00000000   0.00000000
   0.37214650   0.00000000   0.00000000
  -0.25953040   0.00000000   0.00000000
  -0.43896660   0.00000000   0.00000000
   0.00000000   1.00000000   0.00000000
   0.00000000   0.00000000   0.34971700
   0.00000000   0.00000000   0.09505320
* p-type functions
    6    3
         54.81410000
          3.07556140
          1.11824570
          0.27063620
          0.09650530
          0.03540960
   0.05640360   0.00000000   0.00000000
  -0.14482720   0.00000000   0.00000000
  -0.04639310   0.00000000   0.00000000
   0.00000000   1.00000000   0.00000000
   0.00000000   0.00000000   0.55599050
   0.00000000   0.00000000   0.28802500
* d-type functions
    7    2
         55.74442400
         14.72136100
          4.83822720
          1.60624470
          0.49300480
          0.30924500
          0.10713200
   0.04435310   0.00000000
   0.20816350   0.00000000
   0.43011850   0.00000000
   0.45518340   0.00000000
   0.20447030   0.00000000
   0.00000000   0.49356800
   0.00000000   0.61435800
M1
  3
 141.96174000   6.98149380   1.45922200
   0.77776460   0.38253720   0.12758740
M2
  3
 903.02061000  60.42701900   1.53884580
   7.48768250   4.95294180   0.06057450
COREREP
 1.0
PROJOP
    1
   12    3
 768.06648000  98.64056000  13.16262800
17532.57800000
 2141.32090000
  459.09012000
  125.66133000
  204.16308000
   22.11364800
    9.05530010
   16.91566100
    2.66804830
    1.06796700
    0.15860980
    0.05313910
   0.01905670   0.00659850   0.00255200
   0.13427130   0.04649210   0.01798130
   0.45594630   0.15787350   0.06105940
   0.51649330   0.17883820   0.06916770
  -0.00406650   0.10592120   0.04757100
   0.02596770  -0.67638810  -0.30377750
   0.01693820  -0.44119440  -0.19814800
   0.00553400   0.00297270  -0.25021050
  -0.01796430  -0.00964980   0.81222740
  -0.00930770  -0.00499980   0.42083310
   0.00000000   0.00139430   0.00320720
   0.00000000   0.00047560   0.00109390
    9    2
  85.57641600   9.05291460
  589.75724000
  127.40999000
   38.58081100
   13.19409800
    6.04050320
    2.28519390
    0.87850180
    0.21910030
    0.05724710
   0.03154580   0.01315670
   0.20544780   0.08568570
   0.52627900   0.21949400
   0.40247550   0.16785960
   0.00950370  -0.38875130
   0.01448960  -0.59270380
   0.00529450  -0.21657380
  -0.00264810  -0.00205890
  -0.00339530  -0.00263980
Spectral Representation Operator
End of Spectral Representation Operator

/Ge.MCP-DZP.Sekiya.7s6p7d.3s3p2d.ECP.14el.
M. Sekiya, T. Noro, Y. Osanai, T. Koga. Theor. Chem. Acc. 106 (2001) 297-300. doi:10.1007/s002140100278
GERMANIUM (7s,6p,7d) -> [3s,3p,2d]
*******************************************************************************
* Element : Ge
* Basis : MCP segmented  (412/312/52)
* Effective Charge : 14.0
* Term : 3P   Valence configuration : 1s(2)2p(2)
* SCF energy : -94.63280326 a.u.
* Valence Correlation energy : -0.05991254 a.u.
* References
* Authors : E. Miyoshi, Y. Sakai, K. Tanaka, M. Masamura,   [inner and valence shell]
* Journal : J. Mol. Struct. (THEOCHEM), 451, 73-79 (1998)
* Authors : M. Sekiya, T. Noro, Y. Osanai, T. Koga,   [valence correlated set]
* Journal : Theor. Chem. Acc. 106, 297 (2001)
*******************************************************************************
    14.0   2
* s-type functions
    7    3
        428.75263000
         13.49180000
          9.38049590
          1.87257860
          0.23652500
          0.16192360
          0.07683230
  -0.03110480   0.00000000   0.00000000
   0.34972590   0.00000000   0.00000000
  -0.21905570   0.00000000   0.00000000
  -0.49305100   0.00000000   0.00000000
   0.00000000   1.00000000   0.00000000
   0.00000000   0.00000000   0.20411990
   0.00000000   0.00000000   0.33983880
* p-type functions
    6    3
         59.20822700
          3.32769850
          1.07696190
          0.35940340
          0.13355260
          0.05015950
   0.06571060   0.00000000   0.00000000
  -0.18061600   0.00000000   0.00000000
  -0.06321740   0.00000000   0.00000000
   0.00000000   1.00000000   0.00000000
   0.00000000   0.00000000   0.56155630
   0.00000000   0.00000000   0.25736630
* d-type functions
    7    2
         64.68981000
         17.23871600
          5.74528800
          1.95628290
          0.62347290
          0.39613300
          0.14101400
   0.04148310   0.00000000
   0.20000630   0.00000000
   0.42195560   0.00000000
   0.46240140   0.00000000
   0.20170130   0.00000000
   0.00000000   0.50580300
   0.00000000   0.59790100
M1
  3
 127.46825000   7.95701940   1.63789540
   0.64414360   0.36587800   0.11748600
M2
  3
 739.58166000  59.24677700   1.50561660
  11.64264400   3.76357210   0.05682070
COREREP
 1.0
PROJOP
    1
   12    3
 822.40226000 106.94675000  14.81280600
19065.56400000
 2310.58130000
  493.35716000
  134.72874000
  219.08054000
   23.79342400
    9.77438050
   18.26866900
    2.89925190
    1.18238760
    0.19976040
    0.06722310
   0.01896750   0.00659910   0.00257920
   0.13357870   0.04647410   0.01816390
   0.45502740   0.15831110   0.06187400
   0.51815100   0.18027280   0.07045750
  -0.00409740   0.10572240   0.04804060
   0.02617000  -0.67524170  -0.30683220
   0.01714600  -0.44240370  -0.20102980
   0.00554510   0.00314250  -0.25300700
  -0.01792440  -0.01015810   0.81783770
  -0.00914570  -0.00518310   0.41729290
   0.00000000   0.00171750   0.00336600
   0.00000000   0.00053440   0.00104740
    9    2
  93.15437200  10.42315200
  638.78633000
  137.92394000
   41.79843600
   14.32062100
    6.58545490
    2.51746390
    0.99124600
    0.28937700
    0.08092120
   0.03114220   0.01319480
   0.20358730   0.08625880
   0.52478630   0.22234900
   0.40480520   0.17151370
   0.00995960  -0.38983910
   0.01516610  -0.59363400
   0.00543170  -0.21260980
  -0.00310030  -0.00217830
  -0.00352220  -0.00247480
Spectral Representation Operator
End of Spectral Representation Operator

/As.MCP-DZP.Sekiya.7s6p7d.3s3p2d.ECP.15el.
M. Sekiya, T. Noro, Y. Osanai, T. Koga. Theor. Chem. Acc. 106 (2001) 297-300. doi:10.1007/s002140100278
ARSENIC (7s,6p,7d) -> [3s,3p,2d]
*******************************************************************************
* Element : As
* Basis : MCP segmented  (412/312/52)
* Effective Charge : 15.0
* Term : 4S   Valence configuration : 1s(2)2p(3)
* SCF energy : -112.61028246 a.u.
* Valence Correlation energy : -0.071256 a.u.
* References
* Authors : E. Miyoshi, Y. Sakai, K. Tanaka, M. Masamura,   [inner and valence shell]
* Journal : J. Mol. Struct. (THEOCHEM), 451, 73-79 (1998)
* Authors : M. Sekiya, T. Noro, Y. Osanai, T. Koga,   [valence correlated set]
* Journal : Theor. Chem. Acc. 106, 297 (2001)
*******************************************************************************
    15.0   2
* s-type functions
    7    3
        457.25026000
         15.78669000
          7.95264500
          2.04222750
          0.31238670
          0.18682200
          0.08682300
  -0.03400460   0.00000000   0.00000000
   0.25876000   0.00000000   0.00000000
  -0.12188760   0.00000000   0.00000000
  -0.53538820   0.00000000   0.00000000
   0.00000000   1.00000000   0.00000000
   0.00000000   0.00000000   0.40386300
   0.00000000   0.00000000   0.26373020
* p-type functions
    6    3
         63.77154200
          3.60523070
          1.05087070
          0.45486190
          0.17087810
          0.06519740
   0.07399030   0.00000000   0.00000000
  -0.21277680   0.00000000   0.00000000
  -0.08457230   0.00000000   0.00000000
   0.00000000   1.00000000   0.00000000
   0.00000000   0.00000000   0.56613660
   0.00000000   0.00000000   0.23714520
* d-type functions
    7    2
         73.80344300
         19.80830300
          6.67302060
          2.31699190
          0.75904040
          0.48611600
          0.17640800
   0.03755340   0.00000000
   0.18741540   0.00000000
   0.42092310   0.00000000
   0.46762160   0.00000000
   0.19885020   0.00000000
   0.00000000   0.51916800
   0.00000000   0.58157500
M1
  3
 142.29581000   8.20405540   1.70525760
   0.65451910   0.33290220   0.10687790
M2
  3
 879.20998000  70.59449700   1.73224070
   9.30935680   3.97933070   0.05084070
COREREP
 1.0
PROJOP
    1
   12    3
 878.72548000 115.64659000  16.55615800
20701.19600000
 2488.95890000
  529.20534000
  144.16915000
  234.63293000
   25.54504000
   10.52815300
   19.68156000
    3.14054890
    1.30116790
    0.24359960
    0.08270040
   0.01888090   0.00659930   0.00260660
   0.13288870   0.04644740   0.01834570
   0.45410050   0.15871780   0.06269010
   0.51982120   0.18168870   0.07176310
  -0.00412810   0.10547750   0.04849270
   0.02637490  -0.67390760  -0.30982540
   0.01736750  -0.44375960  -0.20401610
   0.00556340   0.00331800  -0.25594390
  -0.01795710  -0.01070950   0.82611520
  -0.00894230  -0.00533310   0.41138890
   0.00000000   0.00202280   0.00349700
   0.00000000   0.00060570   0.00104710
    9    2
 101.09504000  11.87562600
  690.43018000
  148.97663000
   45.17936900
   15.50622100
    7.15132740
    2.75811020
    1.10648980
    0.36083280
    0.10520650
   0.03074250   0.01322950
   0.20170720   0.08680120
   0.52321150   0.22515500
   0.40723720   0.17524750
   0.01045330  -0.39216040
   0.01587570  -0.59558650
   0.00551440  -0.20687780
  -0.00354400  -0.00220770
  -0.00371530  -0.00231440
Spectral Representation Operator
End of Spectral Representation Operator

/Se.MCP-DZP.Sekiya.7s6p7d.3s3p2d.ECP.16el.
M. Sekiya, T. Noro, Y. Osanai, T. Koga. Theor. Chem. Acc. 106 (2001) 297-300. doi:10.1007/s002140100278
SELENIUM (7s,6p,7d) -> [3s,3p,2d]
*******************************************************************************
* Element : Se
* Basis : MCP segmented  (412/312/52)
* Effective Charge : 16.0
* Term : 3P   Valence configuration : 1s(2)2p(4)
* SCF energy : -131.1173015 a.u.
* Valence Correlation energy : -0.0909078 a.u.
* References
* Authors : E. Miyoshi, Y. Sakai, K. Tanaka, M. Masamura,   [inner and valence shell]
* Journal : J. Mol. Struct. (THEOCHEM), 451, 73-79 (1998)
* Authors : M. Sekiya, T. Noro, Y. Osanai, T. Koga,   [valence correlated set]
* Journal : Theor. Chem. Acc. 106, 297 (2001)
*******************************************************************************
    16.0   2
* s-type functions
    7    3
        488.60045000
         16.93125100
          8.81617020
          2.27609070
          0.37254950
          0.21997390
          0.10192730
  -0.03932690   0.00000000   0.00000000
   0.29595190   0.00000000   0.00000000
  -0.14079590   0.00000000   0.00000000
  -0.58136380   0.00000000   0.00000000
   0.00000000   1.00000000   0.00000000
   0.00000000   0.00000000   0.41692010
   0.00000000   0.00000000   0.25019730
* p-type functions
    6    3
         68.53262000
          3.90479220
          1.09438460
          0.52676290
          0.19578110
          0.07361570
   0.08449960   0.00000000   0.00000000
  -0.24351100   0.00000000   0.00000000
  -0.08496230   0.00000000   0.00000000
   0.00000000   1.00000000   0.00000000
   0.00000000   0.00000000   0.55489160
   0.00000000   0.00000000   0.22379150
* d-type functions
    7    2
         81.06462500
         21.94419400
          7.47608730
          2.64500010
          0.88935110
          0.56534200
          0.20821200
   0.03480830   0.00000000
   0.16160560   0.00000000
   0.41649020   0.00000000
   0.48808580   0.00000000
   0.18939190   0.00000000
   0.00000000   0.52512400
   0.00000000   0.57316900
M1
  3
 151.15154000  12.36041000   3.65761110
   0.65123840   0.24296490   0.06933340
M2
  3
 645.48739000  74.42746600   2.99727980
  13.36820200   4.99706440   0.35536870
COREREP
 1.0
PROJOP
    1
   12    3
 937.09502000 124.78739000  18.43686000
22445.64400000
 2676.84500000
  566.68179000
  153.98987000
  250.85827000
   27.36320000
   11.30876500
   21.15398700
    3.39329850
    1.42469050
    0.29169120
    0.09918830
   0.08593210   0.00659920   0.00263370
   0.12912390   0.04641310   0.01852300
   0.44261650   0.15909670   0.06349400
   0.50936290   0.18308850   0.07306890
   0.00406130   0.10518350   0.04891410
   0.02597830  -0.67280750  -0.31287980
   0.01717920  -0.44492060  -0.20690410
   0.00545930   0.00345760  -0.25898550
  -0.01762070  -0.01115970   0.83591220
  -0.00852120  -0.00539670   0.40423800
   0.00000000   0.00219060   0.00363870
   0.00000000   0.00063680   0.00105780
    9    2
 109.44400000  13.45466600
  744.87059000
  160.60407000
   48.73444400
   16.75489400
    7.73832140
    3.00621140
    1.22248440
    0.43500640
    0.12346150
   0.03034140   0.01325440
   0.19978170   0.08727280
   0.52152260   0.22782240
   0.40980880   0.17902120
   0.01099820  -0.39538040
   0.01664550  -0.59839550
   0.00556000  -0.19987920
  -0.00407740  -0.00212630
  -0.00409730  -0.00213660
Spectral Representation Operator
End of Spectral Representation Operator

/Br.MCP-DZP.Sekiya.7s6p7d.3s3p2d.ECP.17el.
M. Sekiya, T. Noro, Y. Osanai, T. Koga. Theor. Chem. Acc. 106 (2001) 297-300. doi:10.1007/s002140100278
BROMINE (7s,6p,7d) -> [3s,3p,2d]
*******************************************************************************
* Element : Br
* Basis : MCP segmented  (412/312/52)
* Effective Charge : 17.0
* Term : 2P   Valence configuration : 1s(2)2p(5)
* SCF energy : -153.03719568 a.u.
* Valence Correlation energy : -0.11107671 a.u.
* References
* Authors : E. Miyoshi, Y. Sakai, K. Tanaka, M. Masamura,   [inner and valence shell]
* Journal : J. Mol. Struct. (THEOCHEM), 451, 73-79 (1998)
* Authors : M. Sekiya, T. Noro, Y. Osanai, T. Koga,   [valence correlated set]
* Journal : Theor. Chem. Acc. 106, 297 (2001)
*******************************************************************************
    17.0   2
* s-type functions
    7    3
        521.11188000
         18.46534900
          8.65100540
          2.48499480
          0.44136690
          0.25072610
          0.11674870
  -0.04268160   0.00000000   0.00000000
   0.29290050   0.00000000   0.00000000
  -0.12998630   0.00000000   0.00000000
  -0.61472700   0.00000000   0.00000000
   0.00000000   1.00000000   0.00000000
   0.00000000   0.00000000   0.44649500
   0.00000000   0.00000000   0.22980760
* p-type functions
    6    3
         73.46538000
          4.22308990
          1.12144450
          0.60293820
          0.22420240
          0.08448630
   0.09075170   0.00000000   0.00000000
  -0.26640940   0.00000000   0.00000000
  -0.09299490   0.00000000   0.00000000
   0.00000000   1.00000000   0.00000000
   0.00000000   0.00000000   0.54399960
   0.00000000   0.00000000   0.20898610
* d-type functions
    7    2
         87.72113300
         23.95176900
          8.24795210
          2.96786330
          1.01966970
          0.65568700
          0.24454100
   0.03587450   0.00000000
   0.16268660   0.00000000
   0.41705220   0.00000000
   0.48689690   0.00000000
   0.18066120   0.00000000
   0.00000000   0.53297000
   0.00000000   0.56324900
M1
  3
 151.19243000  12.25936100   4.07322740
   0.59097330   0.19652680   0.06127300
M2
  3
 761.53761000  72.83256300   3.26622510
  17.81014700   5.08167740   0.35644870
COREREP
 1.0
PROJOP
    1
   12    3
 997.46640000 134.31659000  20.40189000
24305.48800000
 2874.65310000
  605.83585000
  164.19839000
  267.70391000
   29.27410600
   12.14839400
   22.69054500
    3.65681920
    1.55211690
    0.34270240
    0.11721070
   0.01871590   0.00659920   0.00266030
   0.13151730   0.04637300   0.01869360
   0.45222320   0.15945400   0.06427820
   0.52319660   0.18447920   0.07436620
  -0.00418830   0.10486420   0.04930920
   0.02678200  -0.67054810  -0.31530510
   0.01785400  -0.44701640  -0.21019600
   0.00561550   0.00370920  -0.26191360
  -0.01815140  -0.01198940   0.84659780
  -0.00849340  -0.00561010   0.39614120
   0.00000000   0.00269540   0.00377450
   0.00000000   0.00077910   0.00109090
    9    2
 118.14688000  15.10810700
  801.49742000
  172.66922000
   52.41922500
   18.04917100
    8.34795040
    3.26489240
    1.34237600
    0.51404650
    0.14562940
   0.02998250   0.01328690
   0.19804890   0.08776630
   0.52001890   0.23044870
   0.41210750   0.18262730
   0.01149150  -0.39906780
   0.01730970  -0.60111470
   0.00555240  -0.19281780
  -0.00439630  -0.00205300
  -0.00425680  -0.00198780
Spectral Representation Operator
End of Spectral Representation Operator

/Kr.MCP-DZP.Sekiya.7s6p7d.3s3p2d.ECP.18el.
M. Sekiya, T. Noro, Y. Osanai, T. Koga. Theor. Chem. Acc. 106 (2001) 297-300. doi:10.1007/s002140100278
KRYPTON (7s,6p,7d) -> [3s,3p,2d]
*******************************************************************************
* Element : Kr
* Basis : MCP segmented  (412/312/52)
* Effective Charge : 18.0
* Term : 1S   Valence configuration : 1s(2)2p(6)
* SCF energy : -176.86371081 a.u.
* Valence Correlation energy : -0.13011862 a.u.
* References
* Authors : E. Miyoshi, Y. Sakai, K. Tanaka, M. Masamura,   [inner and valence shell]
* Journal : J. Mol. Struct. (THEOCHEM), 451, 73-79 (1998)
* Authors : M. Sekiya, T. Noro, Y. Osanai, T. Koga,   [valence correlated set]
* Journal : Theor. Chem. Acc. 106, 297 (2001)
*******************************************************************************
    18.0   2
* s-type functions
    7    3
        554.75641000
         20.21821700
          7.51338280
          2.61466510
          0.52239990
          0.28263780
          0.13423310
  -0.04437690   0.00000000   0.00000000
   0.28269220   0.00000000   0.00000000
  -0.13720300   0.00000000   0.00000000
  -0.62976010   0.00000000   0.00000000
   0.00000000   1.00000000   0.00000000
   0.00000000   0.00000000   0.46072460
   0.00000000   0.00000000   0.22095040
* p-type functions
    6    3
         78.57669800
          4.55975840
          1.15975050
          0.67343200
          0.25298320
          0.09639490
   0.09588210   0.00000000   0.00000000
  -0.28770060   0.00000000   0.00000000
  -0.09353740   0.00000000   0.00000000
   0.00000000   1.00000000   0.00000000
   0.00000000   0.00000000   0.53107870
   0.00000000   0.00000000   0.19222440
* d-type functions
    7    2
         93.78921800
         25.81470500
          8.98154220
          3.28364400
          1.14933390
          0.75376500
          0.28339300
   0.03586650   0.00000000
   0.16178390   0.00000000
   0.41985530   0.00000000
   0.48497270   0.00000000
   0.17260300   0.00000000
   0.00000000   0.54031500
   0.00000000   0.55456500
M1
  3
 161.13328000  12.56126500   4.27820880
   0.53233850   0.17879900   0.05765500
M2
  3
 859.27159000  85.03966100   3.46369570
  19.87048900   5.58304480   0.34028370
COREREP
 1.0
PROJOP
    1
   12    3
  10.598524e2 144.23735000  22.45287800
26287.74600000
 3082.82150000
  646.71957000
  174.80267000
  285.27435000
   31.24910000
   13.00959000
   24.28823700
    3.93234070
    1.68339570
    0.39672450
    0.13670400
   0.01863780   0.00659930   0.00268600
   0.13083630   0.04632650   0.01885540
   0.45127210   0.15978650   0.06503480
   0.52490120   0.18585710   0.07564580
  -0.00421760   0.10449400   0.04965930
   0.02699640  -0.66885020  -0.31786130
   0.01810860  -0.44865150  -0.21321500
   0.00564890   0.00389340  -0.26485530
  -0.01829790  -0.01261160   0.85791220
  -0.00826720  -0.00569810   0.38761490
   0.00000000   0.00297350   0.00390700
   0.00000000   0.00086440   0.00113580
    9    2
 127.20478000  16.83757800
  860.85890000
  185.28780000
   56.26984100
   19.40290700
    8.98160010
    3.53436560
    1.46588700
    0.59770620
    0.17058390
   0.02963210   0.01331180
   0.19633210   0.08819930
   0.51848600   0.23292220
   0.41442940   0.18617630
   0.01200030  -0.40294270
   0.01798030  -0.60373780
   0.00553630  -0.18589770
  -0.00471800  -0.00197710
  -0.00442950  -0.00185620
Spectral Representation Operator
End of Spectral Representation Operator

/Rb.MCP-DZP.Anjima.8s9p.3s2p.ECP.9el.
H. Anjima, S. Tsukamoto, H. Mori, H. Mine, M. Klobukowski, E. Miyoshi. J. Comput. Chem. 28 (2007) 2424-2430. doi:10.1002/jcc.20612
RUBIDIUM (8s,9p) -> [3s,2p]
*******************************************************************************
* Element : Rb
* Basis : MCP segmented  (771/63)
* Effective Charge : 9.0
* Term : 2S   Valence configuration : 1s(2)2p(6)2s(1)
* SCF energy : -23.82978851 a.u.
* References
* Authors : H. Anjima, S. Tsukamoto, H. Mori, H. Mine, M. Klobukowski, E. Miyoshi,   [inner and valence shell]
* Journal : J. Comput. Chem. 28, 2424-2430 (2007)
* Authors : T. Noro, M. Sekiya, T. Koga,   [valence correlated set]
* Journal : Theor. Chem. Acc. 109, 85 (2003)
*******************************************************************************
     9.0   1
* s-type functions
    8    3
        589.90768000
         21.78933200
          7.30695990
          2.83144880
          0.52802480
          0.21523210
          0.03072770
          0.01311340
  -0.07051670   0.01437760   0.00000000
   0.34895620  -0.07397840   0.00000000
  -0.21925050   0.04846300   0.00000000
  -0.61825040   0.14380100   0.00000000
   0.78904730  -0.23733210   0.00000000
   0.43501430  -0.27151980   0.00000000
   0.00006860   0.84793020   0.00000000
   0.00000000   0.00000000   1.00000000
* p-type functions
    9    2
        267.04547000
         56.37995300
          6.74712050
          3.90295600
          0.59577610
          0.19879220
          0.19630100
          0.04839300
          0.02216400
   0.03385470   0.00000000
   0.10069870   0.00000000
  -0.15770140   0.00000000
  -0.18309830   0.00000000
   0.64618850   0.00000000
   0.46438600   0.00000000
   0.00000000  -0.09496200
   0.00000000   0.71563700
   0.00000000   0.36953000
M1
  3
 197.25077000   9.16689680   4.13021560
   1.79456510   0.93943040   0.25151530
M2
  3
  42.276478e2  73.37569200   2.61400020
 173.65739000  10.44761100   0.30094660
COREREP
 1.0
PROJOP
    2
   13    3
  11.248125e2 155.09318000  25.12550200
28403.64000000
 3302.12830000
  689.43235000
  185.81948000
  303.62291000
   33.28095600
   13.87792700
   25.94689700
    4.22300240
    1.82338280
    2.97584520
    0.53216850
    0.21335340
   0.01856010   0.00659870   0.00271090
   0.13014820   0.04627150   0.01900970
   0.45030170   0.16009530   0.06577200
   0.52663750   0.18723490   0.07692170
  -0.00424720   0.10407270   0.04996970
   0.02726190  -0.66801460  -0.32074200
   0.01834520  -0.44952230  -0.21583460
   0.00569100   0.00378660  -0.26801210
  -0.01846060  -0.01228320   0.86938310
  -0.00807230  -0.00537110   0.38015490
   0.00000000  -0.00075280  -0.00108980
   0.00000000   0.00243590   0.00352640
   0.00000000   0.00121330   0.00175650
   10    2
 137.15801000  19.17408300
  924.12233000
  198.70921000
   60.36521900
   20.84714000
    9.64579450
    3.82142160
    1.60112200
    0.83685810
    0.33300430
    0.13034700
   0.02923580   0.01330390
   0.19433540   0.08843330
   0.51653810   0.23505310
   0.41726220   0.18987710
   0.01266210  -0.40611600
   0.01887070  -0.60524480
   0.00563120  -0.18061050
  -0.00362020  -0.00141020
  -0.00468970  -0.00182690
  -0.00143140  -0.00055760
    4    1
   9.29089660
   68.93451600
   18.06657200
    5.74581480
    1.82450150
   0.07038520
   0.32980330
   0.55636190
   0.31480720
Spectral Representation Operator
End of Spectral Representation Operator

/Sr.MCP-DZP.Anjima.8s8p.3s2p.ECP.10el.
H. Anjima, S. Tsukamoto, H. Mori, H. Mine, M. Klobukowski, E. Miyoshi. J. Comput. Chem. 28 (2007) 2424-2430. doi:10.1002/jcc.20612
STRONTIUM (8s,8p) -> [3s,2p]
*******************************************************************************
* Element : Sr
* Basis : MCP segmented  (771/62)
* Effective Charge : 10.0
* Term : 1S   Valence configuration : 1s(2)2p(6)2s(2)
* SCF energy : -30.40350256 a.u.
* Valence Correlation energy : -0.02056112 a.u.
* References
* Authors : H. Anjima, S. Tsukamoto, H. Mori, H. Mine, M. Klobukowski, E. Miyoshi,   [inner and valence shell]
* Journal : J. Comput. Chem. 28, 2424-2430 (2007)
* Authors : M. Sekiya, T. Noro, Y. Osanai, T. Koga,   [valence correlated set]
* Journal : Theor. Chem. Acc. 106, 297 (2001)
*******************************************************************************
    10.0   1
* s-type functions
    8    3
        627.31637000
         23.14060200
          7.82405320
          3.06540820
          0.61464310
          0.26329600
          0.05427490
          0.02227570
  -0.07406710   0.01853240   0.00000000
   0.37212740  -0.09693300   0.00000000
  -0.23668320   0.06386290   0.00000000
  -0.65957040   0.19379590   0.00000000
   0.81135830  -0.33283110   0.00000000
   0.43531850  -0.31054290   0.00000000
  -0.00314540   0.75000100   0.00000000
   0.00000000   0.00000000   1.00000000
* p-type functions
    8    2
        285.09341000
         60.23220600
          7.05737330
          4.09142860
          0.69285770
          0.24376450
          0.06033100
          0.02073400
   0.03582620   0.00000000
   0.10950110   0.00000000
  -0.19280480   0.00000000
  -0.18019640   0.00000000
   0.67159680   0.00000000
   0.43734220   0.00000000
   0.00000000   0.89108400
   0.00000000   0.14573700
M1
  3
 206.87925000   9.92957900   4.89473730
   1.59543570   0.87069050   0.22145330
M2
  3
  42.319155e2  75.11102400   2.78312710
 157.08760000   9.03143680   0.27194130
COREREP
 1.0
PROJOP
    2
   13    3
  11.918657e2 166.39379000  27.92654600
30654.55700000
 3532.53020000
  733.96009000
  197.24608000
  322.63418000
   35.41886400
   14.82114000
   27.67433800
    4.52698680
    1.96830090
    3.27311840
    0.61074650
    0.25672130
   0.01848750   0.00659940   0.00273570
   0.12947150   0.04621650   0.01915850
   0.44932800   0.16039320   0.06648910
   0.52836920   0.18860800   0.07818520
  -0.00427620   0.10363660   0.05025610
   0.02747390  -0.66585650  -0.32289110
   0.01862950  -0.45150300  -0.21894550
   0.00573100   0.00397270  -0.27091880
  -0.01861230  -0.01290220   0.87985520
  -0.00788270  -0.00546430   0.37263490
   0.00000000  -0.00088580  -0.00116760
   0.00000000   0.00275900   0.00363660
   0.00000000   0.00125120   0.00164920
   10    2
 147.51473000  21.62622000
  990.17815000
  212.68381000
   64.62358200
   22.34841700
   10.33288200
    4.11727750
    1.73895320
    0.95179090
    0.39048270
    0.15396140
   0.02886170   0.01329470
   0.19243640   0.08864270
   0.51467360   0.23707610
   0.41997990   0.19345690
   0.01329740  -0.40966290
   0.01969940  -0.60689500
   0.00568460  -0.17512850
  -0.00407320  -0.00140830
  -0.00495550  -0.00171330
  -0.00122160  -0.00042240
    4    1
  11.18643300
   75.80085900
   19.96109900
    6.40522180
    2.06540190
   0.06823040
   0.32504680
   0.55736630
   0.31511350
Spectral Representation Operator
End of Spectral Representation Operator

/In.MCP-DZP.Sekiya.8s7p8d.3s3p2d.ECP.13el.
M. Sekiya, T. Noro, Y. Osanai, T. Koga. Theor. Chem. Acc. 106 (2001) 297-300. doi:10.1007/s002140100278
INDIUM (8s,7p,8d) -> [3s,3p,2d]
*******************************************************************************
* Element : In
* Basis : MCP segmented  (512/412/62)
* Effective Charge : 13.0
* Term : 2P   Valence configuration : 1s(2)2p(1)
* SCF energy : -57.492821 a.u.
* Valence Correlation energy : -0.03958974 a.u.
* References
* Authors : E. Miyoshi, Y. Sakai, K. Tanaka, M. Masamura,   [inner and valence shell]
* Journal : J. Mol. Struct. (THEOCHEM), 451, 73-79 (1998)
* Authors : M. Sekiya, T. Noro, Y. Osanai, T. Koga,   [valence correlated set]
* Journal : Theor. Chem. Acc. 106, 297 (2001)
*******************************************************************************
    13.0   2
* s-type functions
    8    3
       1137.24110000
         44.79398400
          8.12312950
          1.68931200
          0.94858130
          0.17261650
          0.08247100
          0.04101410
   0.01931690   0.00000000   0.00000000
  -0.10940960   0.00000000   0.00000000
   0.30968940   0.00000000   0.00000000
  -0.30240780   0.00000000   0.00000000
  -0.36182940   0.00000000   0.00000000
   0.00000000   1.00000000   0.00000000
   0.00000000   0.00000000   0.44945460
   0.00000000   0.00000000   0.16010960
* p-type functions
    7    3
        162.91105000
         11.08898100
          1.95221390
          0.61574490
          0.28491680
          0.09282550
          0.03346020
  -0.02787710   0.00000000   0.00000000
   0.10074240   0.00000000   0.00000000
  -0.20309330   0.00000000   0.00000000
  -0.13485190   0.00000000   0.00000000
   0.00000000   1.00000000   0.00000000
   0.00000000   0.00000000   0.60417200
   0.00000000   0.00000000   0.32537010
* d-type functions
    8    2
        127.85717000
         37.24200300
         14.38783300
          2.67764630
          1.04357850
          0.35436790
          0.21208500
          0.07943900
  -0.03010810   0.00000000
  -0.12608500   0.00000000
  -0.16625790   0.00000000
   0.38303230   0.00000000
   0.54604000   0.00000000
   0.24174270   0.00000000
   0.00000000   0.57268300
   0.00000000   0.52263900
M1
  3
 214.54749000   6.23509190   1.18871510
   2.17409980   0.69552990   0.17880050
M2
  3
  16.511028e2  37.56033000   1.10909490
   9.54293100   6.53981720   0.09211770
COREREP
 1.0
PROJOP
    2
   13    4
  20.673992e2 316.23400000  62.85930400  10.62056100
67902.79500000
 7040.32590000
 1375.40320000
  355.82550000
  590.30322000
   64.25357000
   27.48527100
   51.34544200
    8.69919860
    3.84817300
    7.64179270
    1.65384110
    0.70057510
   0.01776520   0.00659820   0.00293410   0.00126200
   0.12134200   0.04506770   0.02004110   0.00862020
   0.43558780   0.16178190   0.07194250   0.03094420
   0.55026160   0.20437300   0.09088230   0.03909070
  -0.00475440   0.09628460   0.05042910   0.02245990
   0.03199120  -0.64788270  -0.33932880  -0.15112850
   0.02311090  -0.46803850  -0.24513530  -0.10917710
   0.00730710   0.00498490  -0.29443380  -0.16889340
  -0.02421650  -0.01652060   0.97578230   0.55972910
  -0.00756740  -0.00516250   0.30492270   0.17491000
   0.00000000  -0.00134720  -0.00108810   0.37970490
   0.00000000   0.00348070   0.00281140  -0.98103970
   0.00000000   0.00141960   0.00114660  -0.40011630
   10    3
 283.57658000  51.85447400   7.16362900
 1947.78170000
  411.64543000
  124.77473000
   43.65494400
   19.60851400
    8.10802930
    3.48130360
    2.66939790
    1.15392220
    0.46959890
   0.02528840   0.01278310   0.00534350
   0.17309320   0.08749700   0.03657470
   0.49300220   0.24920810   0.10417170
   0.44653010   0.22571690   0.09435210
   0.02358730  -0.43781340  -0.25941900
   0.03359210  -0.62351710  -0.36945470
   0.00695270  -0.12905220  -0.07646770
  -0.01161570  -0.00112740   0.54285500
  -0.01259830  -0.00122280   0.58877880
  -0.00277890  -0.00026970   0.12987050
    7    1
  34.73983400
  181.18995000
   49.31153500
   16.86080500
    6.10614800
    4.08803890
    1.35983600
    0.42195640
   0.04897800
   0.26952380
   0.54706220
   0.35046250
   0.00658090
   0.01290440
   0.00712900
Spectral Representation Operator
End of Spectral Representation Operator

/Sn.MCP-DZP.Sekiya.8s7p8d.3s3p2d.ECP.14el.
M. Sekiya, T. Noro, Y. Osanai, T. Koga. Theor. Chem. Acc. 106 (2001) 297-300. doi:10.1007/s002140100278
TIN (8s,7p,8d) -> [3s,3p,2d]
*******************************************************************************
* Element : Sn
* Basis : MCP segmented  (512/412/62)
* Effective Charge : 14.0
* Term : 3P   Valence configuration : 1s(2)2p(2)
* SCF energy : -69.0271382 a.u.
* Valence Correlation energy : -0.05190169 a.u.
* References
* Authors : E. Miyoshi, Y. Sakai, K. Tanaka, M. Masamura,   [inner and valence shell]
* Journal : J. Mol. Struct. (THEOCHEM), 451, 73-79 (1998)
* Authors : M. Sekiya, T. Noro, Y. Osanai, T. Koga,   [valence correlated set]
* Journal : Theor. Chem. Acc. 106, 297 (2001)
*******************************************************************************
    14.0   2
* s-type functions
    8    3
       1196.77260000
         46.89287700
          8.62799890
          1.91376790
          1.12667830
          0.20609100
          0.11339780
          0.05763880
   0.02143610   0.00000000   0.00000000
  -0.12102080   0.00000000   0.00000000
   0.34132570   0.00000000   0.00000000
  -0.24934400   0.00000000   0.00000000
  -0.47615160   0.00000000   0.00000000
   0.00000000   1.00000000   0.00000000
   0.00000000   0.00000000   0.38611690
   0.00000000   0.00000000   0.23530970
* p-type functions
    7    3
        172.02382000
         11.37496000
          2.73569250
          1.28499860
          0.23538060
          0.09754970
          0.03981400
  -0.03305370   0.00000000   0.00000000
   0.12634190   0.00000000   0.00000000
  -0.13856610   0.00000000   0.00000000
  -0.19192280   0.00000000   0.00000000
   0.00000000   1.00000000   0.00000000
   0.00000000   0.00000000   0.53098730
   0.00000000   0.00000000   0.20977480
* d-type functions
    8    2
        184.52791000
         50.37842000
         17.36772800
          2.68458570
          1.03915190
          0.36984110
          0.26091300
          0.10037500
  -0.01939520   0.00000000
  -0.10614360   0.00000000
  -0.20023220   0.00000000
   0.44852170   0.00000000
   0.52427470   0.00000000
   0.18036570   0.00000000
   0.00000000   0.59498200
   0.00000000   0.49507500
M1
  3
 239.93797000   6.88017010   1.33305550
   2.09061540   0.64206230   0.17840150
M2
  3
  31.586491e2  42.06144600   1.23516100
   6.33362720   6.48305140   0.08985210
COREREP
 1.0
PROJOP
    2
   13    4
  21.606716e2 333.02815000  67.17553200  11.77164400
72666.14700000
 7458.57700000
 1448.04800000
  373.13416000
  620.62066000
   67.45249500
   28.88902200
   53.96234700
    9.16445200
    4.04898670
    8.11606490
    1.77704230
    0.76573930
   0.01773960   0.00661090   0.00295360   0.00128730
   0.12075150   0.04499970   0.02010470   0.00876230
   0.43452240   0.16193090   0.07234640   0.03153090
   0.55203530   0.20572370   0.09191190   0.04005820
  -0.00477170   0.09546550   0.05025420   0.02268720
   0.03228040  -0.64582070  -0.33996810  -0.15347840
   0.02349410  -0.47003760  -0.24743370  -0.11170380
   0.00737160   0.00504840  -0.29598890  -0.17268770
  -0.02445260  -0.01674620   0.98184020   0.57283150
  -0.00749790  -0.00513490   0.30106210   0.17564760
   0.00000000  -0.00135800  -0.00102200   0.38706360
   0.00000000   0.00348080   0.00261960  -0.99210010
   0.00000000   0.00139770   0.00105190  -0.39838560
   10    3
 298.72182000  55.64155300   8.10416160
 2041.79190000
  430.72747000
  130.44356000
   45.58117400
   20.63008100
    8.53951760
    3.66129070
    2.86554120
    1.25138010
    0.51735730
   0.02532200   0.01288250   0.00548330
   0.17328100   0.08815610   0.03752310
   0.49365580   0.25114560   0.10689850
   0.44707310   0.22744680   0.09681130
   0.02258030  -0.44186300  -0.26769750
   0.03189180  -0.62407560  -0.37808880
   0.00645410  -0.12629640  -0.07651520
  -0.01038300  -0.00106790   0.55024440
  -0.01116470  -0.00114830   0.59166740
  -0.00232920  -0.00023950   0.12343230
    7    1
  37.84609200
  193.00103000
   52.60604900
   18.04452200
    6.57029300
    4.53881630
    1.55029590
    0.50023910
   0.04796830
   0.26621390
   0.54597170
   0.35299130
   0.00674270
   0.01352710
   0.00727420
Spectral Representation Operator
End of Spectral Representation Operator

/Sb.MCP-DZP.Sekiya.8s7p8d.3s3p2d.ECP.15el.
M. Sekiya, T. Noro, Y. Osanai, T. Koga. Theor. Chem. Acc. 106 (2001) 297-300. doi:10.1007/s002140100278
ANTIMONY (8s,7p,8d) -> [3s,3p,2d]
*******************************************************************************
* Element : Sb
* Basis : MCP segmented  (512/412/62)
* Effective Charge : 15.0
* Term : 4S   Valence configuration : 1s(2)2p(3)
* SCF energy : -81.9211089 a.u.
* Valence Correlation energy : -0.05926742 a.u.
* References
* Authors : E. Miyoshi, Y. Sakai, K. Tanaka, M. Masamura,   [inner and valence shell]
* Journal : J. Mol. Struct. (THEOCHEM), 451, 73-79 (1998)
* Authors : M. Sekiya, T. Noro, Y. Osanai, T. Koga,   [valence correlated set]
* Journal : Theor. Chem. Acc. 106, 297 (2001)
*******************************************************************************
    15.0   2
* s-type functions
    8    3
       1258.73750000
         49.04561900
          9.16846770
          1.92801370
          1.20660630
          0.24157020
          0.12829600
          0.06636970
   0.02383240   0.00000000   0.00000000
  -0.13130690   0.00000000   0.00000000
   0.36260710   0.00000000   0.00000000
  -0.29713330   0.00000000   0.00000000
  -0.47862480   0.00000000   0.00000000
   0.00000000   1.00000000   0.00000000
   0.00000000   0.00000000   0.40686940
   0.00000000   0.00000000   0.19893630
* p-type functions
    7    3
        179.96267000
         12.16623800
          2.52842940
          1.06543220
          0.36883840
          0.14853010
          0.05748450
  -0.03869300   0.00000000   0.00000000
   0.13944340   0.00000000   0.00000000
  -0.22038010   0.00000000   0.00000000
  -0.18820300   0.00000000   0.00000000
   0.00000000   1.00000000   0.00000000
   0.00000000   0.00000000   0.60596820
   0.00000000   0.00000000   0.27025790
* d-type functions
    8    2
        194.91964000
         53.28818400
         18.44267800
          2.91543950
          1.15571820
          0.42230670
          0.31063000
          0.12175900
  -0.02197810   0.00000000
  -0.12104670   0.00000000
  -0.20157710   0.00000000
   0.45397710   0.00000000
   0.51750020   0.00000000
   0.17106670   0.00000000
   0.00000000   0.61456200
   0.00000000   0.47144200
M1
  3
 266.86362000   7.49516780   1.05597430
   1.99472890   0.59586820   0.13529630
M2
  3
  34.154512e2  45.47132200   1.92297790
   9.00486070   7.81707830   0.08902100
COREREP
 1.0
PROJOP
    2
   13    4
  22.562691e2 350.33645000  71.64708300  12.96119700
77729.52000000
 7897.73740000
 1523.59540000
  391.00890000
  651.87657000
   70.85474300
   30.46330800
   56.67781000
    9.64219890
    4.25599420
    8.60767710
    1.90415590
    0.83206640
   0.01771780   0.00662510   0.00297320   0.00131240
   0.12016680   0.04493330   0.02016530   0.00890080
   0.43344530   0.16207580   0.07273690   0.03210530
   0.55381590   0.20708540   0.09293640   0.04102120
  -0.00478980   0.09464970   0.05007030   0.02290310
   0.03246280  -0.64149070  -0.33935300  -0.15522670
   0.02397550  -0.47377560  -0.25063050  -0.11464330
   0.00742270   0.00535700  -0.29719780  -0.17624950
  -0.02465180  -0.01779130   0.98703420   0.58534850
  -0.00742970  -0.00536200   0.29747710   0.17641510
   0.00000000  -0.00158280  -0.00094410   0.39444390
   0.00000000   0.00403550   0.00240710  -1.00568830
   0.00000000   0.00158190   0.00094360  -0.39423940
   10    3
[...]
    9    3
       5990.17470000
        176.79162000
         39.64335800
          7.75654280
          2.23770380
          1.27120950
          0.36477870
          0.17984320
          0.08231550
  -0.02792830   0.00000000   0.00000000
   0.11426900   0.00000000   0.00000000
  -0.29558670   0.00000000   0.00000000
   0.62128280   0.00000000   0.00000000
  -0.50637010   0.00000000   0.00000000
  -0.59964810   0.00000000   0.00000000
   0.00000000   1.00000000   0.00000000
   0.00000000   0.00000000   0.59053270
   0.00000000   0.00000000   0.14050380
* p-type functions
    8    3
        641.23815000
         47.89584200
         10.58036200
          1.93897550
          0.90279800
          0.34053160
          0.14297830
          0.05871290
   0.02188220   0.00000000   0.00000000
  -0.08744810   0.00000000   0.00000000
   0.21189290   0.00000000   0.00000000
  -0.39546350   0.00000000   0.00000000
  -0.07453520   0.00000000   0.00000000
   0.00000000   1.00000000   0.00000000
   0.00000000   0.00000000   0.53939400
   0.00000000   0.00000000   0.17029410
* d-type functions
   10    2
        357.27673000
         95.85673700
         15.63088100
          9.93281670
          2.15430500
          0.92420440
          0.35987060
          1.92654700
          0.33433800
          0.13786000
   0.03226500   0.00000000
   0.16061540   0.00000000
  -0.23693510   0.00000000
  -0.16990170   0.00000000
   0.52786770   0.00000000
   0.46940650   0.00000000
   0.12680470   0.00000000
   0.00000000  -0.08301000
   0.00000000   0.67504900
   0.00000000   0.41686200
M1
  3
 392.61221000  11.25226000   3.70086820
   1.80588330   1.09135430   0.47532820
M2
  3
  47.015056e2  45.29843300   1.32453540
 442.09107000  12.29301700   0.12991140
COREREP
 1.0
PROJOP
    3
   14    5
  71.078476e2  13.011571e2 322.93212000  79.07278000  15.68501200
   63.666271e4
47355.86000000
 6998.00380000
 1485.86940000
 3037.21460000
  304.24312000
  129.49597000
  224.64639000
   37.11120200
   15.24462500
    9.16721800
    3.99334570
    1.86457820
    0.78509060
   0.02029520   0.00848130   0.00411480   0.00221350   0.00105780
   0.10834300   0.04527620   0.02196610   0.01181640   0.00564680
   0.39461250   0.16490720   0.08000620   0.04303840   0.02056700
   0.60862740   0.25434330   0.12339690   0.06637990   0.03172140
  -0.00469480   0.05669580   0.03294290   0.01016000   0.00304430
   0.03836570  -0.46331960  -0.26921010  -0.08302790  -0.02487850
   0.05325300  -0.64310370  -0.37367300  -0.11524560  -0.03453220
   0.01018370   0.01172300  -0.29407690  -0.32962400  -0.19043490
  -0.03648300  -0.04199730   1.05352280   1.18086960   0.68222830
  -0.00931130  -0.01071870   0.26888380   0.30138570   0.17412070
   0.00000000   0.01142170  -0.01991320  -1.31536450  -1.30327550
   0.00000000   0.00270700  -0.00471950  -0.31174480  -0.30887970
   0.00000000   0.00000000   0.00328200   0.00303740   1.26628550
   0.00000000   0.00000000   0.00067750   0.00062700   0.26138560
   10    4
  11.119884e2 268.29584000  60.82276000  10.21378300
 8953.69050000
 1723.75090000
  496.47987000
  169.59196000
   78.04048100
   31.08456900
   14.10623200
    5.98943270
    2.44980590
    0.96196720
   0.02256170   0.01279000   0.00663230   0.00293610
   0.15275000   0.08659240   0.04490280   0.01987840
   0.47005840   0.26647130   0.13817950   0.06117170
   0.48492990   0.27490180   0.14255120   0.06310710
   0.03200250  -0.50895560  -0.40432810  -0.19736210
   0.04082510  -0.64926740  -0.51579560  -0.25177200
  -0.01009800  -0.03452140   0.68602290   0.49386380
  -0.00900840  -0.03079650   0.61200060   0.44057560
   0.00000000   0.00881120   0.01588000  -0.80300420
   0.00000000   0.00544570   0.00981460  -0.49629590
   10    2
 212.47517000  39.57658600
  856.19018000
  234.64886000
   83.57131100
   32.49776700
   29.44780200
   12.37653200
    5.12643720
    3.34602410
    1.32472140
    0.48531860
   0.03479400   0.01915070
   0.21947020   0.12079670
   0.52708880   0.29011040
   0.38781730   0.21345520
   0.00994210  -0.24282630
   0.02581130  -0.63041680
   0.01589790  -0.38829110
  -0.00309530  -0.00686270
  -0.00520150  -0.01153260
  -0.00208200  -0.00461620
    5    1
  16.44627400
  144.49196000
   46.19545500
   17.87265200
    7.18667000
    2.72933120
   0.04378590
   0.22141080
   0.45406710
   0.43562530
   0.15188930
Spectral Representation Operator
End of Spectral Representation Operator

/Rn.MCP-DZP.Noro.9s8p10d.3s3p2d.ECP.18el.
T. Noro, M. Sekiya, Y. Osanai, E. Miyoshi, T. Koga. J. Chem. Phys. 119 (2003) 5142. doi:10.1063/1.1597651
RADON (9s,8p,10d) -> [3s,3p,2d]
*******************************************************************************
* Element : Rn
* Basis : MCP segmented  (612/512/73)
* Effective Charge : 18.0
* Term : 1S   Valence configuration : 1s(2)2p(6)
* SCF energy : -111.37130052 a.u.
* Valence Correlation energy : -0.09117676 a.u.
* References
* Authors : E. Miyoshi, Y. Sakai, K. Tanaka, M. Masamura,   [inner and valence shell]
* Journal : J. Mol. Struct. (THEOCHEM), 451, 73-79 (1998)
* Authors : T. Noro, M. Sekiya, Y. Osanai, E. Miyoshi, T. Koga,   [valence correlated set]
* Journal : J. Chem. Phys. 119, 5142 (2003)
*******************************************************************************
    18.0   2
* s-type functions
    9    3
       6274.55550000
        182.88388000
         40.95536500
          8.10092270
          2.23677890
          1.27159650
          0.43182350
          0.22091870
          0.10204850
  -0.03113930   0.00000000   0.00000000
   0.12252360   0.00000000   0.00000000
  -0.31204320   0.00000000   0.00000000
   0.64692950   0.00000000   0.00000000
  -0.62766450   0.00000000   0.00000000
  -0.54592420   0.00000000   0.00000000
   0.00000000   1.00000000   0.00000000
   0.00000000   0.00000000   0.63890590
   0.00000000   0.00000000   0.19187790
* p-type functions
    8    3
        661.78804000
         49.37687600
         10.96573100
          2.38249740
          1.71708430
          0.33656580
          0.14308340
          0.06091660
   0.02484800   0.00000000   0.00000000
  -0.09540260   0.00000000   0.00000000
   0.22806280   0.00000000   0.00000000
  -0.19003900   0.00000000   0.00000000
  -0.28637300   0.00000000   0.00000000
   0.00000000   1.00000000   0.00000000
   0.00000000   0.00000000   0.48257240
   0.00000000   0.00000000   0.12590050
* d-type functions
   10    2
        368.73891000
         98.94864400
         16.21745300
         10.41379300
          2.27025000
          0.98664350
          0.38808440
          2.03335400
          0.36914500
          0.15451900
   0.03660530   0.00000000
   0.17004440   0.00000000
  -0.22151730   0.00000000
  -0.18034540   0.00000000
   0.55053650   0.00000000
   0.45217500   0.00000000
   0.12182520   0.00000000
   0.00000000  -0.09042100
   0.00000000   0.68470900
   0.00000000   0.40694600
M1
  3
 559.91707000  22.50929000   3.45627370
   1.69548370   1.29840410   0.58718870
M2
  3
  50.991392e2  44.97360700   1.24054940
 365.14049000   9.20536680   0.06562750
COREREP
 1.0
PROJOP
    3
   14    5
   7.307910e3  13.434916e2 335.04200000  82.93474000  16.87538700
    6.748933e5
49861.47600000
 7302.41990000
 1539.26160000
 3178.28760000
  318.06118000
  134.73430000
  232.87555000
   38.36432500
   15.78896500
    9.51950170
    4.15148610
    1.96718970
    0.83354640
   0.02049630   0.00859330   0.00417260   0.00224770   0.00108520
   0.10831450   0.04541210   0.02205040   0.01187840   0.00573480
   0.39349540   0.16497740   0.08010690   0.04315300   0.02083400
   0.60991200   0.25571250   0.12416450   0.06688650   0.03229240
  -0.00466720   0.05547730   0.03231800   0.01002690   0.00303170
   0.03823760  -0.45451220  -0.26477400  -0.08214780  -0.02483840
   0.05481630  -0.65157530  -0.37957220  -0.11776460  -0.03560760
   0.01021130   0.01197030  -0.29233560  -0.32923920  -0.19266210
  -0.03675010  -0.04308090   1.05210790   1.18492260   0.69338540
  -0.00942370  -0.01104710   0.26978790   0.30384510   0.17780210
   0.00000000   0.01177830  -0.01999010  -1.32043980  -1.32940390
   0.00000000   0.00278100  -0.00471980  -0.31176790  -0.31388440
   0.00000000   0.00000000   0.00325730   0.00340200   1.28701040
   0.00000000   0.00000000   0.00064630   0.00067500   0.25535500
   10    4
  11.449259e2 277.90762000  63.85958000  11.09442300
 9284.30440000
 1781.55760000
  512.06667000
  174.69686000
   80.56917500
   32.08910400
   14.60451000
    6.22501530
    2.57915430
    1.02651510
   0.02253830   0.01279580   0.00666000   0.00299250
   0.15237320   0.08650770   0.04502580   0.02023130
   0.46955320   0.26658200   0.13875150   0.06234470
   0.48575990   0.27578310   0.14354050   0.06449650
   0.03212730  -0.50790450  -0.40552980  -0.20121160
   0.04113890  -0.65037030  -0.51927980  -0.25765090
  -0.01008790  -0.03477340   0.68679550   0.50482660
  -0.00899850  -0.03101820   0.61262800   0.45031000
   0.00000000   0.00878320   0.01616950  -0.81401330
   0.00000000   0.00531470   0.00978410  -0.49255500
   10    2
 220.35392000  41.91956000
  886.06278000
  242.72960000
   86.47772400
   33.66670300
   30.59515200
   12.91376200
    5.37623720
    3.55075190
    1.42907960
    0.53148690
   0.03444230   0.01907750
   0.21784220   0.12066210
   0.52575110   0.29121180
   0.38973070   0.21587060
   0.01012050  -0.23994730
   0.02653620  -0.62914610
   0.01651820  -0.39163000
  -0.00331980  -0.00710690
  -0.00555900  -0.01190080
  -0.00215120  -0.00460530
    5    1
  18.14919000
  145.96212000
   46.72784400
   18.14778800
    7.36523580
    2.84159980
   0.04613230
   0.22953180
   0.45881010
   0.42617850
   0.14255530
Spectral Representation Operator
End of Spectral Representation Operator

/Fr.MCP-DZP.Anjima.10s11p.3s2p.ECP.9el.
H. Anjima, S. Tsukamoto, H. Mori, H. Mine, M. Klobukowski, E. Miyoshi. J. Comput. Chem. 28 (2007) 2424-2430. doi:10.1002/jcc.20612
FRANCIUM (10s,11p) -> [3s,2p]
*******************************************************************************
* Element : Fr
* Basis : MCP segmented  (991/83)
* Effective Charge : 9.0
* Term : 2S   Valence configuration : 1s(2)2p(6)2s(1)
* SCF energy : -19.14872568 a.u.
* References
* Authors : H. Anjima, S. Tsukamoto, H. Mori, H. Mine, M. Klobukowski, E. Miyoshi,   [inner and valence shell]
* Journal : J. Comput. Chem. 28, 2424-2430 (2007)
* Authors : T. Noro, M. Sekiya, Y. Osanai, E. Miyoshi, T. Koga,   [valence correlated set]
* Journal : J. Chem. Phys. 119, 5142 (2003)
*******************************************************************************
     9.0   1
* s-type functions
   10    3
       6573.29390000
        189.36728000
         42.19467000
          8.51414550
          2.17526240
          1.34605290
          0.36852560
          0.15375130
          0.03159920
          0.01416560
  -0.01619720   0.00414400   0.00000000
   0.10262970  -0.02625750   0.00000000
  -0.30630030   0.07851140   0.00000000
   0.69856480  -0.18185090   0.00000000
  -0.83098970   0.23828500   0.00000000
  -0.37333010   0.09462080   0.00000000
   0.99136200  -0.37730670   0.00000000
   0.35202230  -0.27761780   0.00000000
   0.00836470   0.71467610   0.00000000
   0.00000000   0.00000000   1.00000000
* p-type functions
   11    2
        683.35937000
         50.72296000
         15.17766900
          6.49306600
          2.71695170
          1.09524400
          0.33243630
          0.12129430
          0.19615000
          0.03616700
          0.01571800
   0.02094600   0.00000000
  -0.10645820   0.00000000
   0.14881800   0.00000000
   0.22507490   0.00000000
  -0.52361600   0.00000000
  -0.11632760   0.00000000
   0.78336830   0.00000000
   0.35952180   0.00000000
   0.00000000  -0.14884500
   0.00000000   0.82260100
   0.00000000   0.26679100
M1
  3
 194.03494000  18.46967900   3.06090990
   4.48049570   1.88298910   1.05536250
M2
  3
  88.198531e2  17.35581400   1.44948490
  11.798805e2  17.45806100   0.95960100
COREREP
 1.0
PROJOP
    3
   16    5
  75.123008e2  13.872443e2 347.85060000  87.28237800  18.46371100
   72.269049e4
53108.93800000
 7712.36710000
 1613.53070000
 3378.13580000
  328.89934000
  139.58125000
  241.79016000
   39.56471400
   16.02363500
    9.82949530
    4.11838140
    2.06248600
    0.83827880
    0.37172740
    0.15014260
   0.02054430   0.00863450   0.00419530   0.00226370   0.00110380
   0.10731460   0.04510270   0.02191460   0.01182450   0.00576590
   0.38875150   0.16338640   0.07938650   0.04283460   0.02088730
   0.61354100   0.25786210   0.12529050   0.06760310   0.03296500
  -0.00480780   0.05371810   0.03142890   0.00985110   0.00302390
   0.04033520  -0.45066560  -0.26367100  -0.08264510  -0.02536870
   0.05848540  -0.65345810  -0.38231880  -0.11983410  -0.03678420
   0.01089230   0.01201250  -0.28928750  -0.32709140  -0.19370050
  -0.03975550  -0.04384420   1.05586560   1.19384510   0.70698410
  -0.01021080  -0.01126100   0.27118940   0.30662820   0.18158240
   0.00000000   0.01241260  -0.02591820  -1.34861640  -1.37603900
   0.00000000   0.00280000  -0.00584660  -0.30421840  -0.31040430
   0.00000000   0.00000000   0.00451830   0.01404020   1.33575580
   0.00000000   0.00000000   0.00079580   0.00247290   0.23526470
   0.00000000   0.00000000   0.00000000  -0.00228030  -0.00378440
   0.00000000   0.00000000   0.00000000  -0.00082430  -0.00136810
   10    4
  11.788225e2 288.09880000  67.34266000  12.35661000
 9711.09540000
 1857.04600000
  532.78560000
  181.69358000
   83.65691200
   33.35476100
   15.17766900
    6.49306600
    2.71695170
    1.09524400
   0.02223380   0.01264410   0.00660640   0.00301050
   0.15028200   0.08546380   0.04465360   0.02034870
   0.46567000   0.26482180   0.13836550   0.06305340
   0.49012160   0.27872710   0.14563090   0.06636430
   0.03289260  -0.49966360  -0.40121500  -0.20223890
   0.04319470  -0.65616090  -0.52687760  -0.26558120
  -0.01043190  -0.03578660   0.68143220   0.51123840
  -0.00946180  -0.03245870   0.61806460   0.46369740
   0.00000000   0.00909250   0.01666750  -0.82244310
   0.00000000   0.00543270   0.00995860  -0.49140100
    8    3
 228.76084000  44.69073400   5.09067240
  898.63885000
  245.93257000
   87.53194700
   34.17113900
   22.51564700
    7.85224040
    3.02783270
    0.97322300
   0.03538890   0.01921420   0.00758650
   0.22259340   0.12085580   0.04771880
   0.53061440   0.28809390   0.11375120
   0.38144230   0.20710180   0.08177220
   0.02070560  -0.52081350  -0.26062270
   0.02737960  -0.68868470  -0.34462790
  -0.00364360  -0.03351630   0.60048030
  -0.00378870  -0.03485110   0.62439410
    5    1
  20.27455200
  179.98265000
   57.12756900
   21.99179700
    8.81386400
    3.35390700
   0.03286750
   0.18719520
   0.43487220
   0.46538600
   0.17851610
Spectral Representation Operator
End of Spectral Representation Operator

/Ra.MCP-DZP.Anjima.10s11p.3s2p.ECP.10el.
H. Anjima, S. Tsukamoto, H. Mori, H. Mine, M. Klobukowski, E. Miyoshi. J. Comput. Chem. 28 (2007) 2424-2430. doi:10.1002/jcc.20612
RADIUM (10s,11p) -> [3s,2p]
*******************************************************************************
* Element : Ra
* Basis : MCP segmented  (991/83)
* Effective Charge : 10.0
* Term : 1S   Valence configuration : 1s(2)2p(6)2s(2)
* SCF energy : -23.9992967 a.u.
* Valence Correlation energy : -0.01783006 a.u.
* References
* Authors : H. Anjima, S. Tsukamoto, H. Mori, H. Mine, M. Klobukowski, E. Miyoshi,   [inner and valence shell]
* Journal : J. Comput. Chem. 28, 2424-2430 (2007)
* Authors : T. Noro, M. Sekiya, Y. Osanai, E. Miyoshi, T. Koga,   [valence correlated set]
* Journal : J. Chem. Phys. 119, 5142 (2003)
*******************************************************************************
    10.0   1
* s-type functions
   10    3
       6899.41620000
        194.76307000
         44.15176400
          8.71530980
          2.17269960
          0.87947920
          0.41408700
          0.17583380
          0.03919890
          0.01628440
  -0.01671050   0.00504650   0.00000000
   0.10726710  -0.03239390   0.00000000
  -0.31716400   0.09597350   0.00000000
   0.74538360  -0.22938120   0.00000000
  -1.14147200   0.38040260   0.00000000
  -0.20236150   0.08798710   0.00000000
   1.10689610  -0.59453260   0.00000000
   0.32143320  -0.20678600   0.00000000
   0.00536530   0.93241600   0.00000000
   0.00000000   0.00000000   1.00000000
* p-type functions
   11    2
        704.93072000
         52.27103700
         15.72124900
          6.75162370
          2.85909330
          1.16639370
          0.37361850
          0.14111420
          0.23222100
          0.07654700
          0.03424900
   0.02155190   0.00000000
  -0.11100640   0.00000000
   0.15436320   0.00000000
   0.25013850   0.00000000
  -0.56849900   0.00000000
  -0.12876610   0.00000000
   0.82441640   0.00000000
   0.32756630   0.00000000
   0.00000000  -0.24456500
   0.00000000   0.50168300
   0.00000000   0.65870000
M1
  3
 193.35201000  18.18627100   3.02334860
   4.02918220   1.65053610   0.92064280
M2
  3
  82.050761e2  16.50984600   1.49945680
  11.223798e2  14.70524000   0.79488100
COREREP
 1.0
PROJOP
    3
   16    5
  77.208914e2  14.320702e2 360.98166000  91.73761600  20.07940000
   76.611789e4
55949.92600000
 8051.95760000
 1671.97920000
 3539.41890000
  344.11427000
  145.26059000
  250.65977000
   40.89281100
   16.61568200
   10.19603500
    4.24125180
    2.17269960
    0.87947920
    0.41408700
    0.17583380
   0.02076060   0.00875360   0.00425640   0.00229940   0.00113180
   0.10731150   0.04524750   0.02200150   0.01188550   0.00585050
   0.38756030   0.16341320   0.07945950   0.04292490   0.02112920
   0.61478260   0.25922060   0.12604570   0.06809130   0.03351700
  -0.00478020   0.05250170   0.03081170   0.00972930   0.00301850
   0.04017920  -0.44129300  -0.25898150  -0.08177750  -0.02537110
   0.06031050  -0.66239720  -0.38874080  -0.12275110  -0.03808300
   0.01092390   0.01226350  -0.28714450  -0.32616720  -0.19547910
  -0.04009390  -0.04501060   1.05390380   1.19712850   0.71746510
  -0.01035420  -0.01162390   0.27216840   0.30915590   0.18528380
   0.00000000   0.01281150  -0.02567030  -1.35528900  -1.40408970
   0.00000000   0.00288190  -0.00577440  -0.30486540  -0.31584290
   0.00000000   0.00000000   0.00448330   0.01735140   1.36088810
   0.00000000   0.00000000   0.00075580   0.00292530   0.22943110
   0.00000000   0.00000000   0.00000000  -0.00287000  -0.00494180
   0.00000000   0.00000000   0.00000000  -0.00092510  -0.00159290
   10    4
  12.132956e2 298.48648000  70.89262600  13.63065700
10066.47900000
 1918.58700000
  549.26537000
  187.06880000
   86.49998600
   34.54681200
   15.72124900
    6.75162370
    2.85909330
    1.16639370
   0.02221480   0.01265210   0.00663430   0.00306310
   0.14991980   0.08538460   0.04477240   0.02067190
   0.46515750   0.26492360   0.13891560   0.06413870
   0.49094030   0.27960770   0.14661550   0.06769380
   0.03284950  -0.49603800  -0.40023310  -0.20470310
   0.04359060  -0.65823130  -0.53110040  -0.27163640
  -0.01031340  -0.03730550   0.67874600   0.51926270
  -0.00943130  -0.03411490   0.62069560   0.47485230
   0.00000000   0.01029530   0.01697250  -0.83063560
   0.00000000   0.00608270   0.01002780  -0.49076290
    8    3
 237.31104000  47.51047000   6.00096520
  927.36595000
  253.65993000
   90.29412800
   35.27567600
   23.35012700
    8.18562850
    3.23261770
    1.06049040
   0.03517920   0.01922170   0.00778510
   0.22166280   0.12111500   0.04905330
   0.53002210   0.28960040   0.11729230
   0.38239860   0.20894000   0.08462370
   0.02088590  -0.51885530  -0.26805840
   0.02777120  -0.68990200  -0.35642690
  -0.00360360  -0.03387760   0.60146560
  -0.00375090  -0.03526210   0.62604760
    5    1
  22.44349000
  188.36163000
   59.88902400
   23.11762100
    9.30829950
    3.56978360
   0.03212080
   0.18455700
   0.43310050
   0.46688590
   0.17890120
Spectral Representation Operator
End of Spectral Representation Operator
