************************************************************************
* This file is part of OpenMolcas.                                     *
*                                                                      *
* OpenMolcas is free software; you can redistribute it and/or modify   *
* it under the terms of the GNU Lesser General Public License, v. 2.1. *
* OpenMolcas is distributed in the hope that it will be useful, but it *
* is provided "as is" and without any express or implied warranties.   *
* For more details see the full text of the license in the file        *
* LICENSE or in <http://www.gnu.org/licenses/>.                        *
************************************************************************

#Hamiltonian UNK
#Nucleus UNK
#Contraction SEG
#AllElectron NAE

************************************************************************
* This file has been generated from GAMESS basis set data              *
* (version Sep. 30, 2020)                                              *
************************************************************************

/Li.MCP-QZP.Noro.4s3p2d1f.3s3p2d1f.ECP.1el.
T. Noro, M. Sekiya, T. Koga. Theor. Chim. Acc. 109 (2003) 85-90. doi:10.1007/s00214-002-0425-z
LITHIUM (4s,3p,2d,1f) -> [3s,3p,2d,1f]
*******************************************************************************
* Element : Li
* Basis : MCP segmented  (211/111/11/1)
* Effective Charge : 1.0
* Term : 2S   Valence configuration : 1s(1)
* SCF energy : -0.19632372 a.u.
* References
* Authors : Y. Sakai, E. Miyoshi, M. Klobukowski, S. Huzinaga,   [inner and valence shell]
* Journal : J. Chem. Phys. 106, 8084-8092 (1997)
* Authors : T. Noro, M. Sekiya, T. Koga,   [valence correlated set]
* Journal : Theor. Chem. Acc. 109, 85 (2003)
*******************************************************************************
     1.0   3
* s-type functions
    4    3
          9.26822410
          1.07445660
          0.05842780
          0.02176710
  -0.05373070   0.00000000   0.00000000
  -0.21120100   0.00000000   0.00000000
   0.00000000   1.00000000   0.00000000
   0.00000000   0.00000000   1.00000000
* p-type functions
    3    3
          0.52947300
          0.12080800
          0.04759000
   1.00000000   0.00000000   0.00000000
   0.00000000   1.00000000   0.00000000
   0.00000000   0.00000000   1.00000000
* d-type functions
    2    2
          0.14221600
          0.06074300
   1.00000000   0.00000000
   0.00000000   1.00000000
* f-type functions
    1    1
          0.17772600
   1.00000000
M1
  2
   2.71842250   1.06190560
   1.40406970   0.20408430
M2
  0
COREREP
 1.0
PROJOP
    0
    7    1
   4.95548400
  710.57931000
  103.43675000
   24.43300300
    7.30896730
    2.50689360
    0.94380030
    0.37097100
   0.00200950
   0.01482330
   0.06640480
   0.19908010
   0.38191080
   0.38846630
   0.10999670
Spectral Representation Operator
End of Spectral Representation Operator

/Be.MCP-QZP.Noro.4s5p2d2f.3s3p2d1f.ECP.2el.
T. Noro, M. Sekiya, T. Koga. Theor. Chem. Acc. 98 (1997) 25-32. doi:10.1007/s002140050274
BERYLLIUM (4s,5p,2d,2f) -> [3s,3p,2d,1f]
*******************************************************************************
* Element : Be
* Basis : MCP segmented  (211/311/11/2)
* Effective Charge : 2.0
* Term : 1S   Valence configuration : 1s(2)
* SCF energy : -0.96181074 a.u.
* Valence Correlation energy : -0.0458502 a.u.
* References
* Authors : Y. Sakai, E. Miyoshi, M. Klobukowski, S. Huzinaga,   [inner and valence shell]
* Journal : J. Chem. Phys. 106, 8084-8092 (1997)
* Authors : T. Noro, M. Sekiya, T. Koga,   [valence correlated set]
* Journal : Theor. Chem. Acc. 98, 25 (1997)
*******************************************************************************
     2.0   3
* s-type functions
    4    3
         19.75715200
          2.44490940
          0.13959400
          0.04705950
  -0.05381360   0.00000000   0.00000000
  -0.23218770   0.00000000   0.00000000
   0.00000000   1.00000000   0.00000000
   0.00000000   0.00000000   1.00000000
* p-type functions
    5    3
         25.47175000
          4.55911500
          1.03691800
          0.28317700
          0.09672700
   0.01882900   0.00000000   0.00000000
   0.17292500   0.00000000   0.00000000
   0.89396500   0.00000000   0.00000000
   0.00000000   1.00000000   0.00000000
   0.00000000   0.00000000   1.00000000
* d-type functions
    2    2
          0.27630800
          0.18678400
   1.00000000   0.00000000
   0.00000000   1.00000000
* f-type functions
    2    1
          0.32587600
          0.12976600
   0.84439200
   0.22284100
M1
  2
   5.18899210   2.02397980
   0.69860590   0.10611020
M2
  0
COREREP
 1.0
PROJOP
    0
    7    1
   9.46533800
 1311.61550000
  191.38605000
   45.27883300
   13.59732000
    4.71970130
    1.81734410
    0.73401210
   0.00196990
   0.01451970
   0.06534280
   0.19826940
   0.38353070
   0.38450430
   0.10967690
Spectral Representation Operator
End of Spectral Representation Operator

/B.MCP-QZP.Noro.4s4p4d3f2g.3s3p3d2f1g.ECP.3el.
T. Noro, M. Sekiya, T. Koga. Theor. Chem. Acc. 98 (1997) 25-32. doi:10.1007/s002140050274
BORON (4s,4p,4d,3f,2g) -> [3s,3p,3d,2f,1g]
*******************************************************************************
* Element : B
* Basis : MCP segmented  (211/211/211/21/2)
* Effective Charge : 3.0
* Term : 2P   Valence configuration : 1s(2)2p(1)
* SCF energy : -2.54577759 a.u.
* Valence Correlation energy : -0.06793697 a.u.
* References
* Authors : Y. Sakai, E. Miyoshi, M. Klobukowski, S. Huzinaga,   [inner and valence shell]
* Journal : J. Chem. Phys. 106, 8084-8092 (1997)
* Authors : T. Noro, M. Sekiya, T. Koga,   [valence correlated set]
* Journal : Theor. Chem. Acc. 98, 25 (1997)
*******************************************************************************
     3.0   4
* s-type functions
    4    3
         33.50534200
          4.26854150
          0.25387320
          0.08267550
  -0.05873310   0.00000000   0.00000000
  -0.25074270   0.00000000   0.00000000
   0.00000000   1.00000000   0.00000000
   0.00000000   0.00000000   1.00000000
* p-type functions
    4    3
          5.39389860
          1.03225680
          0.27603420
          0.08051870
   0.04383850   0.00000000   0.00000000
   0.24924530   0.00000000   0.00000000
   0.00000000   1.00000000   0.00000000
   0.00000000   0.00000000   1.00000000
* d-type functions
    4    3
          4.20614000
          1.04978800
          0.42595800
          0.15772100
   0.05319500   0.00000000   0.00000000
   0.97456200   0.00000000   0.00000000
   0.00000000   1.00000000   0.00000000
   0.00000000   0.00000000   1.00000000
* f-type functions
    3    2
          1.16791100
          0.68359100
          0.29927700
   0.23225000   0.00000000
   0.79459400   0.00000000
   0.00000000   1.00000000
* g-type functions
    2    1
          0.83869800
          0.35654000
   0.53993600
   0.57326000
M1
  2
  16.03559900   2.32232870
   0.50623320   0.09362620
M2
  0
COREREP
 1.0
PROJOP
    0
    7    1
  15.39067000
  278.78673000
   38.26329600
    8.57637490
    2.36097790
    3.42618150
    0.29298470
    0.09375140
   0.02477010
   0.16786330
   0.49775700
   0.45427320
  -0.00123540
   0.00855450
   0.00698600
Spectral Representation Operator
End of Spectral Representation Operator

/C.MCP-QZP.Noro.4s4p4d3f2g.3s3p3d2f1g.ECP.4el.
T. Noro, M. Sekiya, T. Koga. Theor. Chem. Acc. 98 (1997) 25-32. doi:10.1007/s002140050274
CARBON (4s,4p,4d,3f,2g) -> [3s,3p,3d,2f,1g]
*******************************************************************************
* Element : C
* Basis : MCP segmented  (211/211/211/21/2)
* Effective Charge : 4.0
* Term : 3P   Valence configuration : 1s(2)2p(2)
* SCF energy : -5.33556532 a.u.
* Valence Correlation energy : -0.09176956 a.u.
* References
* Authors : Y. Sakai, E. Miyoshi, M. Klobukowski, S. Huzinaga,   [inner and valence shell]
* Journal : J. Chem. Phys. 106, 8084-8092 (1997)
* Authors : T. Noro, M. Sekiya, T. Koga,   [valence correlated set]
* Journal : Theor. Chem. Acc. 98, 25 (1997)
*******************************************************************************
     4.0   4
* s-type functions
    4    3
         36.19957800
          5.17968600
          0.43654500
          0.13816150
  -0.08219840   0.00000000   0.00000000
  -0.25857220   0.00000000   0.00000000
   0.00000000   1.00000000   0.00000000
   0.00000000   0.00000000   1.00000000
* p-type functions
    4    3
          8.42813110
          1.65487700
          0.44308380
          0.12620780
   0.04967620   0.00000000   0.00000000
   0.26389810   0.00000000   0.00000000
   0.00000000   1.00000000   0.00000000
   0.00000000   0.00000000   1.00000000
* d-type functions
    4    3
          5.79456600
          1.55219400
          0.61888300
          0.22967600
   0.06699200   0.00000000   0.00000000
   0.96535600   0.00000000   0.00000000
   0.00000000   1.00000000   0.00000000
   0.00000000   0.00000000   1.00000000
* f-type functions
    3    2
          2.28949500
          1.07476400
          0.44059700
   0.16225100   0.00000000
   0.87534700   0.00000000
   0.00000000   1.00000000
* g-type functions
    2    1
          1.33968200
          0.54291500
   0.49820100
   0.62460500
M1
  2
  18.64605000   3.51210000
   0.39558950   0.05644160
M2
  0
COREREP
 1.0
PROJOP
    0
    7    1
  22.65103600
  409.06987000
   56.16342800
   12.63215600
    3.49533560
    5.40439740
    0.46071150
    0.14364200
   0.02446620
   0.16673090
   0.49850160
   0.45331670
  -0.00129740
   0.00906990
   0.00745680
Spectral Representation Operator
End of Spectral Representation Operator

/N.MCP-QZP.Noro.4s4p4d3f2g.3s3p3d2f1g.ECP.5el.
T. Noro, M. Sekiya, T. Koga. Theor. Chem. Acc. 98 (1997) 25-32. doi:10.1007/s002140050274
NITROGEN (4s,4p,4d,3f,2g) -> [3s,3p,3d,2f,1g]
*******************************************************************************
* Element : N
* Basis : MCP segmented  (211/211/211/21/2)
* Effective Charge : 5.0
* Term : 4S   Valence configuration : 1s(2)2p(3)
* SCF energy : -9.68276973 a.u.
* Valence Correlation energy : -0.11579843 a.u.
* References
* Authors : Y. Sakai, E. Miyoshi, M. Klobukowski, S. Huzinaga,   [inner and valence shell]
* Journal : J. Chem. Phys. 106, 8084-8092 (1997)
* Authors : T. Noro, M. Sekiya, T. Koga,   [valence correlated set]
* Journal : Theor. Chem. Acc. 98, 25 (1997)
*******************************************************************************
     5.0   4
* s-type functions
    4    3
         50.95824100
          7.39423700
          0.62445100
          0.19434270
  -0.08339300   0.00000000   0.00000000
  -0.26448990   0.00000000   0.00000000
   0.00000000   1.00000000   0.00000000
   0.00000000   0.00000000   1.00000000
* p-type functions
    4    3
         12.03645500
          2.40041700
          0.64243000
          0.17985000
   0.05218680   0.00000000   0.00000000
   0.27436130   0.00000000   0.00000000
   0.00000000   1.00000000   0.00000000
   0.00000000   0.00000000   1.00000000
* d-type functions
    4    3
          8.04826800
          2.21096900
          0.87014100
          0.32002000
   0.07681000   0.00000000   0.00000000
   0.95906200   0.00000000   0.00000000
   0.00000000   1.00000000   0.00000000
   0.00000000   0.00000000   1.00000000
* f-type functions
    3    2
          3.53232600
          1.53153900
          0.61304100
   0.15880800   0.00000000
   0.88484600   0.00000000
   0.00000000   1.00000000
* g-type functions
    2    1
          1.94267200
          0.76405700
   0.47760400
   0.65060800
M1
  2
  27.63930000   5.02210000
   0.31915670   0.05248400
M2
  0
COREREP
 1.0
PROJOP
    0
    7    1
  31.25800000
  563.50938000
   77.38753500
   17.44854900
    4.84350840
    7.82095670
    0.66330180
    0.20294590
   0.02422670
   0.16571010
   0.49798870
   0.45110530
   0.00133460
   0.00941090
   0.00777950
Spectral Representation Operator
End of Spectral Representation Operator

/O.MCP-QZP.Noro.4s4p4d3f2g.3s3p3d2f1g.ECP.6el.
T. Noro, M. Sekiya, T. Koga. Theor. Chem. Acc. 98 (1997) 25-32. doi:10.1007/s002140050274
OXYGEN (4s,4p,4d,3f,2g) -> [3s,3p,3d,2f,1g]
*******************************************************************************
* Element : O
* Basis : MCP segmented  (211/211/211/21/2)
* Effective Charge : 6.0
* Term : 3P   Valence configuration : 1s(2)2p(4)
* SCF energy : -15.71356426 a.u.
* Valence Correlation energy : -0.17076272 a.u.
* References
* Authors : Y. Sakai, E. Miyoshi, M. Klobukowski, S. Huzinaga,   [inner and valence shell]
* Journal : J. Chem. Phys. 106, 8084-8092 (1997)
* Authors : T. Noro, M. Sekiya, T. Koga,   [valence correlated set]
* Journal : Theor. Chem. Acc. 98, 25 (1997)
*******************************************************************************
     6.0   4
* s-type functions
    4    3
         68.22300000
          9.99925000
          0.84936800
          0.26144700
  -0.08369750   0.00000000   0.00000000
  -0.26941880   0.00000000   0.00000000
   0.00000000   1.00000000   0.00000000
   0.00000000   0.00000000   1.00000000
* p-type functions
    4    3
         15.51580700
          3.12594600
          0.82453700
          0.22113600
   0.05562380   0.00000000   0.00000000
   0.29047130   0.00000000   0.00000000
   0.00000000   1.00000000   0.00000000
   0.00000000   0.00000000   1.00000000
* d-type functions
    4    3
         10.52036800
          2.97147300
          1.16839400
          0.42681900
   0.08322700   0.00000000   0.00000000
   0.95432400   0.00000000   0.00000000
   0.00000000   1.00000000   0.00000000
   0.00000000   0.00000000   1.00000000
* f-type functions
    3    2
          4.89122900
          1.96865300
          0.74764400
   0.16948000   0.00000000
   0.88343900   0.00000000
   0.00000000   1.00000000
* g-type functions
    2    1
          2.63779700
          0.97211900
   0.45480000
   0.68574400
M1
  2
  40.64864000   5.17523000
   0.28259840   0.03639180
M2
  0
COREREP
 1.0
PROJOP
    0
    7    1
  41.33731400
  743.24114000
  102.08699000
   23.05896500
    6.41618600
   10.67802700
    0.90653200
    0.27406100
   0.02413310
   0.16555330
   0.49961640
   0.45179500
  -0.00137670
   0.00976130
   0.00799280
Spectral Representation Operator
End of Spectral Representation Operator

/F.MCP-QZP.Noro.4s4p4d3f2g.3s3p3d2f1g.ECP.7el.
T. Noro, M. Sekiya, T. Koga. Theor. Chem. Acc. 98 (1997) 25-32. doi:10.1007/s002140050274
FLUORINE (4s,4p,4d,3f,2g) -> [3s,3p,3d,2f,1g]
*******************************************************************************
* Element : F
* Basis : MCP segmented  (211/211/211/21/2)
* Effective Charge : 7.0
* Term : 2P   Valence configuration : 1s(2)2p(5)
* SCF energy : -23.97534882 a.u.
* Valence Correlation energy : -0.22342717 a.u.
* References
* Authors : Y. Sakai, E. Miyoshi, M. Klobukowski, S. Huzinaga,   [inner and valence shell]
* Journal : J. Chem. Phys. 106, 8084-8092 (1997)
* Authors : T. Noro, M. Sekiya, T. Koga,   [valence correlated set]
* Journal : Theor. Chem. Acc. 98, 25 (1997)
*******************************************************************************
     7.0   4
* s-type functions
    4    3
         87.94764700
         12.98608500
          1.10574440
          0.33734000
  -0.08459230   0.00000000   0.00000000
  -0.27375230   0.00000000   0.00000000
   0.00000000   1.00000000   0.00000000
   0.00000000   0.00000000   1.00000000
* p-type functions
    4    3
         19.73180300
          4.00408000
          1.04870020
          0.27462770
   0.05901220   0.00000000   0.00000000
   0.30134500   0.00000000   0.00000000
   0.00000000   1.00000000   0.00000000
   0.00000000   0.00000000   1.00000000
* d-type functions
    4    3
         13.63646100
          3.91032800
          1.53243100
          0.55621500
   0.08744300   0.00000000   0.00000000
   0.95123300   0.00000000   0.00000000
   0.00000000   1.00000000   0.00000000
   0.00000000   0.00000000   1.00000000
* f-type functions
    3    2
          6.26740000
          2.53086400
          0.99711800
   0.19304100   0.00000000
   0.86552400   0.00000000
   0.00000000   1.00000000
* g-type functions
    2    1
          3.46173000
          1.24257800
   0.44601700
   0.69921900
M1
  2
  52.02781200   6.20635390
   0.24505140   0.03285480
M2
  0
COREREP
 1.0
PROJOP
    0
    7    1
  52.76550000
  947.61572000
  130.18410000
   29.44885300
    8.20894150
   13.97557000
    1.18439010
    0.35459670
   0.02401760
   0.16511310
   0.49980400
   0.45149800
  -0.00141120
   0.01005990
   0.00820250
Spectral Representation Operator
End of Spectral Representation Operator

/Ne.MCP-QZP.Noro.4s4p4d3f2g.3s3p3d2f1g.ECP.8el.
T. Noro, M. Sekiya, T. Koga. Theor. Chem. Acc. 98 (1997) 25-32. doi:10.1007/s002140050274
NEON (4s,4p,4d,3f,2g) -> [3s,3p,3d,2f,1g]
*******************************************************************************
* Element : Ne
* Basis : MCP segmented  (211/211/211/21/2)
* Effective Charge : 8.0
* Term : 1S   Valence configuration : 1s(2)2p(6)
* SCF energy : -34.77988686 a.u.
* Valence Correlation energy : -0.27452426 a.u.
* References
* Authors : Y. Sakai, E. Miyoshi, M. Klobukowski, S. Huzinaga,   [inner and valence shell]
* Journal : J. Chem. Phys. 106, 8084-8092 (1997)
* Authors : T. Noro, M. Sekiya, T. Koga,   [valence correlated set]
* Journal : Theor. Chem. Acc. 98, 25 (1997)
*******************************************************************************
     8.0   4
* s-type functions
    4    3
        153.29425000
         20.44460500
          1.27421960
          0.38758430
  -0.06204030   0.00000000   0.00000000
  -0.28256020   0.00000000   0.00000000
   0.00000000   1.00000000   0.00000000
   0.00000000   0.00000000   1.00000000
* p-type functions
    4    3
         24.61984200
          5.02277090
          1.31065690
          0.33828850
   0.06176840   0.00000000   0.00000000
   0.30746950   0.00000000   0.00000000
   0.00000000   1.00000000   0.00000000
   0.00000000   0.00000000   1.00000000
* d-type functions
    4    3
         17.07530200
          4.95333300
          1.93287700
          0.69770300
   0.09193100   0.00000000   0.00000000
   0.94806400   0.00000000   0.00000000
   0.00000000   1.00000000   0.00000000
   0.00000000   0.00000000   1.00000000
* f-type functions
    3    2
          7.47321700
          3.05141200
          1.34470500
   0.24092200   0.00000000
   0.82731100   0.00000000
   0.00000000   1.00000000
* g-type functions
    2    1
          4.39180700
          1.55035500
   0.44145000
   0.70678400
M1
  2
  54.07667500   7.61297270
   0.20441770   0.02636010
M2
  0
COREREP
 1.0
PROJOP
    0
    7    1
  65.54485000
 1175.86970000
  161.56796000
   36.59069000
   10.21284500
   17.71163300
    1.49732990
    0.44467000
   0.02394740
   0.16489090
   0.50015820
   0.45096870
  -0.00143230
   0.01025660
   0.00835280
Spectral Representation Operator
End of Spectral Representation Operator

/Na.MCP-QZP.Anjima.6s7p2d1f.3s4p2d1f.ECP.9el.
H. Anjima, S. Tsukamoto, H. Mori, H. Mine, M. Klobukowski, E. Miyoshi. J. Comput. Chem. 28 (2007) 2424-2430. doi:10.1002/jcc.20612
SODIUM (6s,7p,2d,1f) -> [3s,4p,2d,1f]
*******************************************************************************
* Element : Na
* Basis : MCP segmented  (551/4111/11/1)
* Effective Charge : 9.0
* Term : 2S   Valence configuration : 1s(2)2p(6)2s(1)
* SCF energy : -47.68833774 a.u.
* References
* Authors : H. Anjima, S. Tsukamoto, H. Mori, H. Mine, M. Klobukowski, E. Miyoshi,   [inner and valence shell]
* Journal : J. Comput. Chem. 28, 2424-2430 (2007)
* Authors : T. Noro, M. Sekiya, T. Koga,   [valence correlated set]
* Journal : Theor. Chem. Acc. 109, 85 (2003)
*******************************************************************************
     9.0   3
* s-type functions
    6    3
        190.58198000
         25.29215000
          1.60633600
          0.68383580
          0.05243890
          0.02044730
  -0.06512850   0.00901330   0.00000000
  -0.28698360   0.04149020   0.00000000
   0.63848260  -0.11212170   0.00000000
   0.41620290  -0.18361120   0.00000000
   0.04565410   0.72718920   0.00000000
   0.00000000   0.00000000   1.00000000
* p-type functions
    7    4
         32.88733900
          6.86830920
          1.86585380
          0.52215510
          0.55577500
          0.09447300
          0.04036000
   0.05612640   0.00000000   0.00000000   0.00000000
   0.29609200   0.00000000   0.00000000   0.00000000
   0.54260900   0.00000000   0.00000000   0.00000000
   0.34714390   0.00000000   0.00000000   0.00000000
   0.00000000   1.00000000   0.00000000   0.00000000
   0.00000000   0.00000000   1.00000000   0.00000000
   0.00000000   0.00000000   0.00000000   1.00000000
* d-type functions
    2    2
          0.12869100
          0.05833400
   1.00000000   0.00000000
   0.00000000   1.00000000
* f-type functions
    1    1
          0.15088400
   1.00000000
M1
  3
 585.45929000  57.82101900  19.71450000
   0.08725940   0.07536270   0.03811140
M2
  3
  10.348078e2 531.52041000   2.64567520
   9.29870360   0.23437000   0.01165350
COREREP
 1.0
PROJOP
    0
    7    1
  81.13572800
 1511.21880000
  202.99137000
   45.52568100
   12.64420200
   21.74653000
    1.92086790
    0.61056960
   0.02329970
   0.16164580
   0.49741480
   0.45714290
  -0.00156340
   0.01085950
   0.00877020
Spectral Representation Operator
End of Spectral Representation Operator

/Mg.MCP-QZP.Anjima.6s8p2d2f.3s4p2d1f.ECP.10el.
H. Anjima, S. Tsukamoto, H. Mori, H. Mine, M. Klobukowski, E. Miyoshi. J. Comput. Chem. 28 (2007) 2424-2430. doi:10.1002/jcc.20612
MAGNESIUM (6s,8p,2d,2f) -> [3s,4p,2d,1f]
*******************************************************************************
* Element : Mg
* Basis : MCP segmented  (551/4211/11/2)
* Effective Charge : 10.0
* Term : 1S   Valence configuration : 1s(2)2p(6)2s(2)
* SCF energy : -62.95982297 a.u.
* Valence Correlation energy : -0.03286032 a.u.
* References
* Authors : H. Anjima, S. Tsukamoto, H. Mori, H. Mine, M. Klobukowski, E. Miyoshi,   [inner and valence shell]
* Journal : J. Comput. Chem. 28, 2424-2430 (2007)
* Authors : M. Sekiya, T. Noro, T. Koga, H. Matsuyam,   [valence correlated set]
* Journal : J. Mol. Struct. (Theochem) 451, 51 (1998)
*******************************************************************************
    10.0   3
* s-type functions
    6    3
        228.58527000
         30.45697500
          1.97532460
          0.66698260
          0.09767590
          0.03553150
  -0.06675120   0.01182350   0.00000000
  -0.29958160   0.05605200   0.00000000
   0.73235230  -0.19997920   0.00000000
   0.34879460  -0.18912570   0.00000000
   0.00045360   0.73075110   0.00000000
   0.00000000   0.00000000   1.00000000
* p-type functions
    8    4
         45.54391200
          9.51012300
          2.61847980
          0.75584410
          1.38860900
          0.22142900
          0.12454700
          0.05576800
   0.04879940   0.00000000   0.00000000   0.00000000
   0.27554300   0.00000000   0.00000000   0.00000000
   0.54707550   0.00000000   0.00000000   0.00000000
   0.35771450   0.00000000   0.00000000   0.00000000
   0.00000000  -0.10044200   0.00000000   0.00000000
   0.00000000   1.03528100   0.00000000   0.00000000
   0.00000000   0.00000000   1.00000000   0.00000000
   0.00000000   0.00000000   0.00000000   1.00000000
* d-type functions
    2    2
          0.29942600
          0.11924700
   1.00000000   0.00000000
   0.00000000   1.00000000
* f-type functions
    2    1
          0.26022800
          0.11452000
   0.75243100
   0.31905700
M1
  3
 635.92279000  67.18713700  27.53051400
   0.07729590   0.06675990   0.03444470
M2
  3
  11.527313e2 776.82481000   3.22174950
   8.50792120   0.21205450   0.00949060
COREREP
 1.0
PROJOP
    0
    7    1
  98.24808400
 1793.50340000
  242.56680000
   54.57753100
   15.20191000
   26.09297500
    2.38868520
    0.79750600
   0.02328750
   0.16109850
   0.49614580
   0.45814220
  -0.00165430
   0.01123130
   0.00882870
Spectral Representation Operator
End of Spectral Representation Operator

/Al.MCP-QZP.Sekiya.4s4p5d2f2g.3s3p3d2f1g.ECP.3el.
M. Sekiya, T. Noro, T. Koga, H. Matsuyama. J. Mol. Struct. THEOCHEM 451 (1998) 51-60. doi:10.1016/s0166-1280(98)00175-4
ALUMINIUM (4s,4p,5d,2f,2g) -> [3s,3p,3d,2f,1g]
*******************************************************************************
* Element : Al
* Basis : MCP segmented  (211/211/311/11/2)
* Effective Charge : 3.0
* Term : 2P   Valence configuration : 1s(2)2p(1)
* SCF energy : -1.87947754 a.u.
* Valence Correlation energy : -0.05398049 a.u.
* References
* Authors : Y. Sakai, E. Miyoshi, M. Klobukowski, S. Huzinaga,   [inner and valence shell]
* Journal : J. Chem. Phys. 106, 8084-8092 (1997)
* Authors : M. Sekiya, T. Noro, T. Koga, H. Matsuyama,   [valence correlated set]
* Journal : J. Mol. Struct. (Theochem) 451, 51 (1998)
*******************************************************************************
     3.0   4
* s-type functions
    4    3
         61.01342500
          1.66771840
          0.14178170
          0.05095710
   0.07108870   0.00000000   0.00000000
  -0.39365650   0.00000000   0.00000000
   0.00000000   1.00000000   0.00000000
   0.00000000   0.00000000   1.00000000
* p-type functions
    4    3
         16.73809500
          3.04805370
          0.17760530
          0.05105210
  -0.04785470   0.00000000   0.00000000
  -0.12752240   0.00000000   0.00000000
   0.00000000   1.00000000   0.00000000
   0.00000000   0.00000000   1.00000000
* d-type functions
    5    3
          7.59645200
          1.63866200
          0.17702600
          0.39613300
          0.07434300
   0.00799000   0.00000000   0.00000000
   0.04389300   0.00000000   0.00000000
   0.99171800   0.00000000   0.00000000
   0.00000000   1.00000000   0.00000000
   0.00000000   0.00000000   1.00000000
* f-type functions
    2    2
          0.38794500
          0.16301200
   1.00000000   0.00000000
   0.00000000   1.00000000
* g-type functions
    2    1
          0.40541200
          0.17948800
   0.66740400
   0.43094000
M1
  3
 131.69528000   5.21732400   2.33145920
   1.12867090   2.01558230   0.12157940
M2
  3
 914.22726000 207.75601000   1.25107970
  38.02286100  14.02683300   0.11166380
COREREP
 1.0
PROJOP
    1
    7    2
  76.05130000   6.38391000
 2043.80760000
  280.93674000
   63.78911500
   17.88862400
   30.61927200
    2.88683820
    0.99935000
   0.02330610   0.00660390
   0.16139190   0.04573120
   0.49584340   0.14049960
   0.45690620   0.12946660
  -0.00172390   0.09566240
   0.01142760  -0.63414550
   0.00865990  -0.48055820
    5    1
   4.18379000
  108.96206000
   23.63035300
    7.10773220
    2.36606390
    0.80250180
   0.01824310
   0.12121050
   0.35717810
   0.49939060
   0.23093030
Spectral Representation Operator
End of Spectral Representation Operator

/Si.MCP-QZP.Sekiya.4s4p5d2f2g.3s3p3d2f1g.ECP.4el.
M. Sekiya, T. Noro, T. Koga, H. Matsuyama. J. Mol. Struct. THEOCHEM 451 (1998) 51-60. doi:10.1016/s0166-1280(98)00175-4
SILICON (4s,4p,5d,2f,2g) -> [3s,3p,3d,2f,1g]
*******************************************************************************
* Element : Si
* Basis : MCP segmented  (211/211/311/11/2)
* Effective Charge : 4.0
* Term : 3P   Valence configuration : 1s(2)2p(2)
* SCF energy : -3.71731711 a.u.
* Valence Correlation energy : -0.08017289 a.u.
* References
* Authors : Y. Sakai, E. Miyoshi, M. Klobukowski, S. Huzinaga,   [inner and valence shell]
* Journal : J. Chem. Phys. 106, 8084-8092 (1997)
* Authors : M. Sekiya, T. Noro, T. Koga, H. Matsuyama,   [valence correlated set]
* Journal : J. Mol. Struct. (Theochem) 451, 51 (1998)
*******************************************************************************
     4.0   4
* s-type functions
    4    3
         70.67891000
          2.07634800
          0.20335900
          0.13816150
   0.05714510   0.00000000   0.00000000
  -0.42826180   0.00000000   0.00000000
   0.00000000   1.00000000   0.00000000
   0.00000000   0.00000000   1.00000000
* p-type functions
    4    3
         21.19006000
          3.96269900
          0.26056700
          0.07680330
  -0.05189530   0.00000000   0.00000000
  -0.16851950   0.00000000   0.00000000
   0.00000000   1.00000000   0.00000000
   0.00000000   0.00000000   1.00000000
* d-type functions
    5    3
          9.67365200
          2.08471400
          0.22778300
          0.53166400
          0.09352000
   0.00933100   0.00000000   0.00000000
   0.05646600   0.00000000   0.00000000
   0.98883400   0.00000000   0.00000000
   0.00000000   1.00000000   0.00000000
   0.00000000   0.00000000   1.00000000
* f-type functions
    2    2
          0.51853500
          0.21030000
   1.00000000   0.00000000
   0.00000000   1.00000000
* g-type functions
    2    1
          0.54394000
          0.23888300
   0.64704100
   0.45498600
M1
  3
 134.98630000   4.33571370   4.54790230
   0.83001080   1.47547010  -0.08634170
M2
  3
 854.06377000 211.97610000   0.99809170
  30.45688400   9.55689100   0.08651300
COREREP
 1.0
PROJOP
    1
    7    2
  82.57488000   7.38783600
 2387.95740000
  328.28020000
   74.58612300
   20.94412300
   35.82222300
    3.44462050
    1.22228350
   0.02313730   0.00671920
   0.16045020   0.04659550
   0.49462160   0.14364040
   0.45858020   0.13317380
  -0.00179650   0.09806900
   0.01181110  -0.64476970
   0.00862200  -0.47067890
    5    1
   5.10726480
  134.82278000
   29.36148100
    8.89063490
    3.00034930
    1.03760180
   0.01731180
   0.11697480
   0.35318630
   0.50346340
   0.22874710
Spectral Representation Operator
End of Spectral Representation Operator

/P.MCP-QZP.Sekiya.4s4p5d2f2g.3s3p3d2f1g.ECP.5el.
M. Sekiya, T. Noro, T. Koga, H. Matsuyama. J. Mol. Struct. THEOCHEM 451 (1998) 51-60. doi:10.1016/s0166-1280(98)00175-4
PHOSPHORUS (4s,4p,5d,2f,2g) -> [3s,3p,3d,2f,1g]
*******************************************************************************
* Element : P
* Basis : MCP segmented  (211/211/311/11/2)
* Effective Charge : 5.0
* Term : 4S   Valence configuration : 1s(2)2p(3)
* SCF energy : -6.33528545 a.u.
* Valence Correlation energy : -0.10209568 a.u.
* References
* Authors : Y. Sakai, E. Miyoshi, M. Klobukowski, S. Huzinaga,   [inner and valence shell]
* Journal : J. Chem. Phys. 106, 8084-8092 (1997)
* Authors : M. Sekiya, T. Noro, T. Koga, H. Matsuyama,   [valence correlated set]
* Journal : J. Mol. Struct. (Theochem) 451, 51 (1998)
*******************************************************************************
     5.0   4
* s-type functions
    4    3
         81.25610300
          2.51787800
          0.27338900
          0.10006350
   0.03518400   0.00000000   0.00000000
  -0.43408370   0.00000000   0.00000000
   0.00000000   1.00000000   0.00000000
   0.00000000   0.00000000   1.00000000
* p-type functions
    4    3
         26.07870000
          4.97449540
          0.35323730
          0.10560030
  -0.04544400   0.00000000   0.00000000
  -0.15889780   0.00000000   0.00000000
   0.00000000   1.00000000   0.00000000
   0.00000000   0.00000000   1.00000000
* d-type functions
    5    3
         12.44314600
          2.70501800
          0.29288300
          0.70192300
          0.11581400
   0.00974200   0.00000000   0.00000000
   0.06222800   0.00000000   0.00000000
   0.98764400   0.00000000   0.00000000
   0.00000000   1.00000000   0.00000000
   0.00000000   0.00000000   1.00000000
* f-type functions
    2    2
          0.68219500
          0.27343000
   1.00000000   0.00000000
   0.00000000   1.00000000
* g-type functions
    2    1
          0.70954900
          0.31151300
   0.63781700
   0.46499100
M1
  3
 126.99655000   5.12503940   2.84904140
   0.54765150   1.14269650  -0.06703160
M2
  3
  11.691293e2 184.39113000   1.32677630
  15.64780600   5.18971510   0.04728360
COREREP
 1.0
PROJOP
    1
    7    2
  87.96668700   8.26221000
 2759.33690000
  379.37300000
   86.24195900
   24.24595200
   41.46793900
    4.04932730
    1.46209090
   0.02298840   0.00681550
   0.15961620   0.04732200
   0.49352880   0.14631840
   0.46007650   0.13640070
  -0.00185870   0.10014080
   0.01216850  -0.65558570
   0.00855390  -0.46084780
    5    1
   5.94104500
  163.57377000
   35.74203600
   10.88146500
    3.71328930
    1.30400870
   0.01653280
   0.11332410
   0.34933110
   0.50656660
   0.22820300
Spectral Representation Operator
End of Spectral Representation Operator

/S.MCP-QZP.Sekiya.4s4p5d2f2g.3s3p3d2f1g.ECP.6el.
M. Sekiya, T. Noro, T. Koga, H. Matsuyama. J. Mol. Struct. THEOCHEM 451 (1998) 51-60. doi:10.1016/s0166-1280(98)00175-4
SULFUR (4s,4p,5d,2f,2g) -> [3s,3p,3d,2f,1g]
*******************************************************************************
* Element : S
* Basis : MCP segmented  (211/211/311/11/2)
* Effective Charge : 6.0
* Term : 3P   Valence configuration : 1s(2)2p(4)
* SCF energy : -9.94719373 a.u.
* Valence Correlation energy : -0.14927269 a.u.
* References
* Authors : Y. Sakai, E. Miyoshi, M. Klobukowski, S. Huzinaga,   [inner and valence shell]
* Journal : J. Chem. Phys. 106, 8084-8092 (1997)
* Authors : M. Sekiya, T. Noro, T. Koga, H. Matsuyama,   [valence correlated set]
* Journal : J. Mol. Struct. (Theochem) 451, 51 (1998)
*******************************************************************************
     6.0   4
* s-type functions
    4    3
         92.69368900
          2.99532660
          0.35397240
          0.12962170
   0.02600000   0.00000000   0.00000000
  -0.46400000   0.00000000   0.00000000
   0.00000000   1.00000000   0.00000000
   0.00000000   0.00000000   1.00000000
* p-type functions
    4    3
         31.77730900
          6.16054770
          0.45462030
          0.13024690
  -0.05600000   0.00000000   0.00000000
  -0.18400000   0.00000000   0.00000000
   0.00000000   1.00000000   0.00000000
   0.00000000   0.00000000   1.00000000
* d-type functions
    5    3
         16.31402900
          3.61048100
          0.38073700
          0.91515200
          0.14823300
   0.00957800   0.00000000   0.00000000
   0.06239000   0.00000000   0.00000000
   0.98797700   0.00000000   0.00000000
   0.00000000   1.00000000   0.00000000
   0.00000000   0.00000000   1.00000000
* f-type functions
    2    2
          0.83987000
          0.31815400
   1.00000000   0.00000000
   0.00000000   1.00000000
* g-type functions
    2    1
          0.87641100
          0.36762000
   0.58909600
   0.52694700
M1
  3
 115.59165000   5.97114120   2.85909020
   0.60336900   0.95621820  -0.07841180
M2
  3
  20.626801e2 148.71381000   1.64401040
   6.29347070   5.71991100   0.03813890
COREREP
 1.0
PROJOP
    1
    7    2
  96.60467200   9.45450450
 3158.03290000
  434.22727000
   98.75946400
   27.79521700
   47.54841400
    4.70344450
    1.72013780
   0.02285570   0.00689740
   0.15886940   0.04794350
   0.49254160   0.14863890
   0.46142780   0.13924940
  -0.00191290   0.10196350
   0.01248980  -0.66573470
   0.00847600  -0.45178650
    5    1
   7.01663550
  193.10309000
   42.29557200
   12.92617600
    4.44630820
    1.57536380
   0.01615640
   0.11184670
   0.34919430
   0.50941850
   0.22319220
Spectral Representation Operator
End of Spectral Representation Operator

/Cl.MCP-QZP.Sekiya.4s4p5d2f2g.3s3p3d2f1g.ECP.7el.
M. Sekiya, T. Noro, T. Koga, H. Matsuyama. J. Mol. Struct. THEOCHEM 451 (1998) 51-60. doi:10.1016/s0166-1280(98)00175-4
CHLORINE (4s,4p,5d,2f,2g) -> [3s,3p,3d,2f,1g]
*******************************************************************************
* Element : Cl
* Basis : MCP segmented  (211/211/311/11/2)
* Effective Charge : 7.0
* Term : 2P   Valence configuration : 1s(2)2p(5)
* SCF energy : -14.81652207 a.u.
* Valence Correlation energy : -0.1976748 a.u.
* References
* Authors : Y. Sakai, E. Miyoshi, M. Klobukowski, S. Huzinaga,   [inner and valence shell]
* Journal : J. Chem. Phys. 106, 8084-8092 (1997)
* Authors : M. Sekiya, T. Noro, T. Koga, H. Matsuyama,   [valence correlated set]
* Journal : J. Mol. Struct. (Theochem) 451, 51 (1998)
*******************************************************************************
     7.0   4
* s-type functions
    4    3
        104.97889000
          3.50782000
          0.44380400
          0.16275300
   0.01123430   0.00000000   0.00000000
  -0.52552060   0.00000000   0.00000000
   0.00000000   1.00000000   0.00000000
   0.00000000   0.00000000   1.00000000
* p-type functions
    4    3
         37.78685000
          7.41799800
          0.56676530
          0.16001640
  -0.06787800   0.00000000   0.00000000
  -0.22000180   0.00000000   0.00000000
   0.00000000   1.00000000   0.00000000
   0.00000000   0.00000000   1.00000000
* d-type functions
    5    3
         20.33810100
          4.55896400
          0.47414100
          1.15106500
          0.18105900
   0.00970300   0.00000000   0.00000000
   0.06420300   0.00000000   0.00000000
   0.98775800   0.00000000   0.00000000
   0.00000000   1.00000000   0.00000000
   0.00000000   0.00000000   1.00000000
* f-type functions
    2    2
          1.04336100
          0.40247500
   1.00000000   0.00000000
   0.00000000   1.00000000
* g-type functions
    2    1
          1.08488700
          0.44958500
   0.57874500
   0.54043400
M1
  3
 112.05427000   6.86097770   2.78942900
   0.37923920   0.81531800  -0.09312150
M2
  3
  16.675256e2 107.06773000   3.57455280
   5.02289320   4.69240790   0.14140620
COREREP
 1.0
PROJOP
    1
    7    2
 104.88440000  10.60750000
 3584.29220000
  492.87736000
  112.14646000
   31.59386700
   54.06609800
    5.40564400
    1.99510560
   0.02273480   0.00696620
   0.15818510   0.04846970
   0.49162400   0.15063920
   0.46268290   0.14177130
  -0.00196170   0.10355440
   0.01279160  -0.67525140
   0.00839920  -0.44338510
    5    1
   8.07220000
  223.90776000
   49.16041100
   15.07759300
    5.22226180
    1.86247030
   0.01596170
   0.11122720
   0.35014970
   0.51156470
   0.21760590
Spectral Representation Operator
End of Spectral Representation Operator

/Ar.MCP-QZP.Sekiya.4s4p5d2f2g.3s3p3d2f1g.ECP.8el.
M. Sekiya, T. Noro, T. Koga, H. Matsuyama. J. Mol. Struct. THEOCHEM 451 (1998) 51-60. doi:10.1016/s0166-1280(98)00175-4
ARGON (4s,4p,5d,2f,2g) -> [3s,3p,3d,2f,1g]
*******************************************************************************
* Element : Ar
* Basis : MCP segmented  (211/211/311/11/2)
* Effective Charge : 8.0
* Term : 1S   Valence configuration : 1s(2)2p(6)
* SCF energy : -20.7613479 a.u.
* Valence Correlation energy : -0.24359619 a.u.
* References
* Authors : Y. Sakai, E. Miyoshi, M. Klobukowski, S. Huzinaga,   [inner and valence shell]
* Journal : J. Chem. Phys. 106, 8084-8092 (1997)
* Authors : M. Sekiya, T. Noro, T. Koga, H. Matsuyama,   [valence correlated set]
* Journal : J. Mol. Struct. (Theochem) 451, 51 (1998)
*******************************************************************************
     8.0   4
* s-type functions
    4    3
        118.11521000
          4.05586480
          0.54293850
          0.19926560
   0.01822520   0.00000000   0.00000000
  -0.38795510   0.00000000   0.00000000
   0.00000000   1.00000000   0.00000000
   0.00000000   0.00000000   1.00000000
* p-type functions
    4    3
         44.22481200
          8.77077120
          0.69053430
          0.19424850
  -0.01504160   0.00000000   0.00000000
  -0.08304560   0.00000000   0.00000000
   0.00000000   1.00000000   0.00000000
   0.00000000   0.00000000   1.00000000
* d-type functions
    5    3
         24.66284400
          5.59146500
          0.57854500
          1.41847800
          0.21720900
   0.00985600   0.00000000   0.00000000
   0.06586400   0.00000000   0.00000000
   0.98745300   0.00000000   0.00000000
   0.00000000   1.00000000   0.00000000
   0.00000000   0.00000000   1.00000000
* f-type functions
    2    2
          1.27564800
          0.51662200
   1.00000000   0.00000000
   0.00000000   1.00000000
* g-type functions
    2    1
          1.32024400
          0.54353400
   0.57340700
   0.54742800
M1
  3
 309.79693000  14.69381000   1.87082500
   0.32088670   0.37433290   0.08141690
M2
  3
 646.14760000 426.23670000   4.13137150
   8.71372630   4.53538390   0.07915090
COREREP
 1.0
PROJOP
    1
    7    2
 118.61035000  12.32215000
 4037.33960000
  555.23269000
  126.38572000
   35.63779700
   61.01759400
    6.15644340
    2.28713180
   0.02262950   0.00702620
   0.15758310   0.04892750
   0.49080450   0.15238840
   0.46379330   0.14400180
  -0.00200420   0.10495570
   0.01306170  -0.68400820
   0.00832070  -0.43573490
    5    1
   9.57146270
  263.84309000
   58.02922200
   17.85902700
    6.23208870
    2.25024220
   0.01513650
   0.10687530
   0.34330140
   0.51300120
   0.22446740
Spectral Representation Operator
End of Spectral Representation Operator

/K.MCP-QZP.Anjima.7s8p2d1f.3s4p2d1f.ECP.9el.
H. Anjima, S. Tsukamoto, H. Mori, H. Mine, M. Klobukowski, E. Miyoshi. J. Comput. Chem. 28 (2007) 2424-2430. doi:10.1002/jcc.20612
POTASSIUM (7s,8p,2d,1f) -> [3s,4p,2d,1f]
*******************************************************************************
* Element : K
* Basis : MCP segmented  (661/5111/11/1)
* Effective Charge : 9.0
* Term : 2S   Valence configuration : 1s(2)2p(6)2s(1)
* SCF energy : -27.99814121 a.u.
* References
* Authors : H. Anjima, S. Tsukamoto, H. Mori, H. Mine, M. Klobukowski, E. Miyoshi,   [inner and valence shell]
* Journal : J. Comput. Chem. 28, 2424-2430 (2007)
* Authors : T. Noro, M. Sekiya, T. Koga,   [valence correlated set]
* Journal : Theor. Chem. Acc. 109, 85 (2003)
*******************************************************************************
     9.0   3
* s-type functions
    7    3
        135.63561000
          5.66797250
          2.42664100
          0.72689430
          0.28220800
          0.03361420
          0.01391600
   0.13702030  -0.02167270   0.00000000
  -0.36257830   0.08843320   0.00000000
  -0.29277790   0.04827520   0.00000000
   0.79912390  -0.20176440   0.00000000
   0.45254950  -0.25762480   0.00000000
   0.01986720   0.84248580   0.00000000
   0.00000000   0.00000000   1.00000000
* p-type functions
    8    4
         33.93153000
          6.24540960
          2.02800670
          0.65699960
          0.22232050
          0.25338200
          0.05612100
          0.02517000
  -0.09938950   0.00000000   0.00000000   0.00000000
  -0.28379340   0.00000000   0.00000000   0.00000000
   0.23114610   0.00000000   0.00000000   0.00000000
   0.62491620   0.00000000   0.00000000   0.00000000
   0.33724510   0.00000000   0.00000000   0.00000000
   0.00000000   1.00000000   0.00000000   0.00000000
   0.00000000   0.00000000   1.00000000   0.00000000
   0.00000000   0.00000000   0.00000000   1.00000000
* d-type functions
    2    2
          0.27397500
          0.05719900
   1.00000000   0.00000000
   0.00000000   1.00000000
* f-type functions
    1    1
          0.08960700
   1.00000000
M1
  3
 264.93730000   9.00873700   3.30959650
   0.64063860   0.49787260   0.01265660
M2
  3
  16.588629e2 708.09116000   4.33889850
  23.87720300   3.35308570   0.33064910
COREREP
 1.0
PROJOP
    1
   10    2
 268.36990000  29.20982800
 5242.44070000
  690.58143000
  153.78629000
   42.86962600
   69.76982000
    7.20773400
    2.83141640
    4.72270370
    0.68353380
    0.26309680
   0.02076870   0.00657290
   0.14572680   0.04611970
   0.47230420   0.14947520
   0.49092320   0.15536780
  -0.00320420   0.10316390
   0.02020530  -0.65054730
   0.01433470  -0.46153350
   0.00435940   0.00224650
  -0.01531960  -0.00789460
  -0.00812040  -0.00418470
    7    1
  23.06219200
  176.58454000
   38.03642100
   11.24585000
    3.70030350
    1.44738900
    0.52368420
    0.19066070
   0.03630650
   0.22236070
   0.52941130
   0.39568570
   0.00664500
   0.01114940
   0.00448660
Spectral Representation Operator
End of Spectral Representation Operator

/Ca.MCP-QZP.Anjima.7s8p3d1f.3s4p2d1f.ECP.10el.
H. Anjima, S. Tsukamoto, H. Mori, H. Mine, M. Klobukowski, E. Miyoshi. J. Comput. Chem. 28 (2007) 2424-2430. doi:10.1002/jcc.20612
CALCIUM (7s,8p,3d,1f) -> [3s,4p,2d,1f]
*******************************************************************************
* Element : Ca
* Basis : MCP segmented  (661/5111/21/1)
* Effective Charge : 10.0
* Term : 1S   Valence configuration : 1s(2)2p(6)2s(2)
* SCF energy : -36.38082014 a.u.
* Valence Correlation energy : -0.02738202 a.u.
* References
* Authors : H. Anjima, S. Tsukamoto, H. Mori, H. Mine, M. Klobukowski, E. Miyoshi,   [inner and valence shell]
* Journal : J. Comput. Chem. 28, 2424-2430 (2007)
* Authors : M. Sekiya, T. Noro, Y. Osanai, T. Koga,   [valence correlated set]
* Journal : Theor. Chem. Acc. 106, 297 (2001)
*******************************************************************************
    10.0   3
* s-type functions
    7    3
        151.57552000
          6.35278320
          2.49789940
          0.89442680
          0.36078010
          0.05993950
          0.02397230
   0.14799500  -0.02873900   0.00000000
  -0.41872080   0.11901050   0.00000000
  -0.30263210   0.07144400   0.00000000
   0.82671020  -0.28223950   0.00000000
   0.46145840  -0.29829180   0.00000000
   0.02208980   0.75920490   0.00000000
   0.00000000   0.00000000   1.00000000
* p-type functions
    8    4
         42.52201900
          8.04307370
          2.63101280
          0.86422260
          0.29962710
          0.36691200
          0.10716600
          0.04553900
  -0.09929820   0.00000000   0.00000000   0.00000000
  -0.29610800   0.00000000   0.00000000   0.00000000
   0.17599150   0.00000000   0.00000000   0.00000000
   0.64447730   0.00000000   0.00000000   0.00000000
   0.34741600   0.00000000   0.00000000   0.00000000
   0.00000000   1.00000000   0.00000000   0.00000000
   0.00000000   0.00000000   1.00000000   0.00000000
   0.00000000   0.00000000   0.00000000   1.00000000
* d-type functions
    3    2
          4.05077000
          0.73790600
          0.11593400
   0.28391100   0.00000000
   0.87231400   0.00000000
   0.00000000   1.00000000
* f-type functions
    1    1
          0.13302200
   1.00000000
M1
  3
 257.17081000  10.36515100  25.60159300
   0.64904450   0.48105740   0.00204360
M2
  3
  15.196495e2  46.224767e2   5.66419340
  12.74242500   0.95042250   0.24868480
COREREP
 1.0
PROJOP
    1
   10    2
 300.34640000  33.93690000
 5903.41430000
  773.82933000
  171.92855000
   47.88637700
   77.92160300
    8.12268500
    3.22020920
    5.43897190
    0.81487640
    0.32805790
   0.02062090   0.00660210
   0.14480510   0.04636190
   0.47108930   0.15082740
   0.49286440   0.15779910
  -0.00327200   0.10401690
   0.02057090  -0.65394530
   0.01442710  -0.45863680
   0.00436700   0.00242630
  -0.01505650  -0.00836510
  -0.00734970  -0.00408340
    7    1
  27.29158000
  202.59132000
   43.70604600
   12.97832500
    4.30394220
    1.72417530
    0.64133080
    0.24051140
   0.03526070
   0.21824250
   0.52734270
   0.39934940
   0.00734900
   0.01194100
   0.00412450
Spectral Representation Operator
End of Spectral Representation Operator

/Sc.MCP-QZP.Osanai.6s6p6d4f2g.4s3p4d2f1g.ECP.11el.
Y. Osanai, M.S. Mon, T. Noro, H. Mori, H. Nakashima, M. Klobukowski, E. Miyoshi. Chem. Phys. Lett. 452 (2008) 210-214. doi:10.1016/j.cplett.2007.12.019
SCANDIUM (6s,6p,6d,4f,2g) -> [4s,3p,4d,2f,1g]
*******************************************************************************
* Element : Sc
* Basis : MCP segmented  (4411/411/3111/31/2)
* Effective Charge : 11.0
* Term : 2D   Valence configuration : 1s(2)3d(1)
* SCF energy : -46.06212284 a.u.
* Valence Correlation energy : -0.03762607 a.u.
* References
* Authors : Y. Osanai, M. S. Mon, T. Noro, H. Mori, H. Nakashima, M. Klobukowski, E. Miyoshi,   [inner and valence shell]
* Journal : Chem. Phys. Lett., 452, 210-214 (2008)
* Authors : T. Noro, M. Sekiya, T. Koga, H. Matsuyama,   [valence correlated set]
* Journal : Theor. Chem. Acc. 104, 146 (2000)
*******************************************************************************
    11.0   4
* s-type functions
    6    4
        168.29614000
          5.98123030
          0.98829840
          0.40996480
          0.07066260
          0.02768090
   0.14872120  -0.02794920   0.00000000   0.00000000
  -0.60870210   0.16216320   0.00000000   0.00000000
   0.67277320  -0.24957770   0.00000000   0.00000000
   0.51825800  -0.30527010   0.00000000   0.00000000
   0.00000000   0.00000000   1.00000000   0.00000000
   0.00000000   0.00000000   0.00000000   1.00000000
* p-type functions
    6    3
         66.48290600
         13.42181100
          1.20755110
          0.39519420
          0.15620700
          0.07090600
  -0.06694330   0.00000000   0.00000000
  -0.25790660   0.00000000   0.00000000
   0.66156290   0.00000000   0.00000000
   0.42530160   0.00000000   0.00000000
   0.00000000   1.00000000   0.00000000
   0.00000000   0.00000000   1.00000000
* d-type functions
    6    4
         17.78451300
          4.34993050
          1.34625750
          0.42572290
          0.12662470
          0.03766260
   0.02942040   0.00000000   0.00000000   0.00000000
   0.16350220   0.00000000   0.00000000   0.00000000
   0.39666340   0.00000000   0.00000000   0.00000000
   0.00000000   1.00000000   0.00000000   0.00000000
   0.00000000   0.00000000   1.00000000   0.00000000
   0.00000000   0.00000000   0.00000000   1.00000000
* f-type functions
    4    2
          5.14666800
          1.45076200
          0.46265000
          0.14594800
   0.04094700   0.00000000
   0.26585300   0.00000000
   0.83268200   0.00000000
   0.00000000   1.00000000
* g-type functions
    2    1
          0.84655000
          0.22348600
   0.35039300
   0.83109500
M1
  3
 242.42039000  10.26421700   4.99637920
   0.50298560   0.11229990   0.02375360
M2
  3
  13.656812e2  35.35566500   3.12452800
  51.01694900   3.96694160   0.03926920
COREREP
 1.0
PROJOP
    1
   10    2
 333.79670000  38.53472000
 6615.94430000
  862.74021000
  191.21075000
   53.20614700
   86.61863400
    9.09319610
    3.62626410
    6.22391860
    0.94474650
    0.37889420
   0.02048130   0.00662660
   0.14392480   0.04656600
   0.46994540   0.15204810
   0.49472840   0.16006650
  -0.00332870   0.10471800
   0.02091460  -0.65796430
   0.01447500  -0.45537660
   0.00432410   0.00248180
  -0.01476450  -0.00847390
  -0.00709390  -0.00407150
    7    1
  31.38991600
  229.24012000
   49.50815400
   14.75097200
    4.91949340
    2.01146430
    0.75089720
    0.28126620
   0.03466000
   0.21617380
   0.52709930
   0.39996390
   0.00765530
   0.01216960
   0.00410910
Spectral Representation Operator
End of Spectral Representation Operator

/Ti.MCP-QZP.Osanai.6s6p6d4f2g.4s3p4d2f1g.ECP.12el.
Y. Osanai, M.S. Mon, T. Noro, H. Mori, H. Nakashima, M. Klobukowski, E. Miyoshi. Chem. Phys. Lett. 452 (2008) 210-214. doi:10.1016/j.cplett.2007.12.019
TITANIUM (6s,6p,6d,4f,2g) -> [4s,3p,4d,2f,1g]
*******************************************************************************
* Element : Ti
* Basis : MCP segmented  (4411/411/3111/31/2)
* Effective Charge : 12.0
* Term : 3F   Valence configuration : 1s(2)3d(2)
* SCF energy : -57.43693357 a.u.
* Valence Correlation energy : -0.04922439 a.u.
* References
* Authors : Y. Osanai, M. S. Mon, T. Noro, H. Mori, H. Nakashima, M. Klobukowski, E. Miyoshi,   [inner and valence shell]
* Journal : Chem. Phys. Lett., 452, 210-214 (2008)
* Authors : T. Noro, M. Sekiya, T. Koga, H. Matsuyama,   [valence correlated set]
* Journal : Theor. Chem. Acc. 104, 146 (2000)
*******************************************************************************
    12.0   4
* s-type functions
    6    4
        185.97380000
          6.69599130
          1.14775560
          0.47236480
          0.07788360
          0.02999980
   0.15441950  -0.02807200   0.00000000   0.00000000
  -0.61551640   0.16272200   0.00000000   0.00000000
   0.64861520  -0.23882010   0.00000000   0.00000000
   0.54675970  -0.30413110   0.00000000   0.00000000
   0.00000000   0.00000000   1.00000000   0.00000000
   0.00000000   0.00000000   0.00000000   1.00000000
* p-type functions
    6    3
         74.75197400
         15.19362600
          1.38826570
          0.45374980
          0.20363700
          0.08161300
  -0.06715760   0.00000000   0.00000000
  -0.26500340   0.00000000   0.00000000
   0.66273850   0.00000000   0.00000000
   0.42414560   0.00000000   0.00000000
   0.00000000   1.00000000   0.00000000
   0.00000000   0.00000000   1.00000000
* d-type functions
    6    4
         20.79635600
          5.18118480
          1.63292240
          0.52819810
          0.16089120
          0.04900810
   0.03221900   0.00000000   0.00000000   0.00000000
   0.17142730   0.00000000   0.00000000   0.00000000
   0.40680150   0.00000000   0.00000000   0.00000000
   0.00000000   1.00000000   0.00000000   0.00000000
   0.00000000   0.00000000   1.00000000   0.00000000
   0.00000000   0.00000000   0.00000000   1.00000000
* f-type functions
    4    2
          7.24895200
          2.11597500
          0.70719600
          0.22703800
   0.04587100   0.00000000
   0.30876700   0.00000000
   0.79204200   0.00000000
   0.00000000   1.00000000
* g-type functions
    2    1
          1.36681400
          0.34564800
   0.35199300
   0.83675800
M1
  3
 281.99107000  11.00609100   5.53417510
   0.45510680   0.11447350   0.01804030
M2
  3
  14.826164e2  37.59110100   4.17394190
  49.61872400   3.63322620   0.03162990
COREREP
 1.0
PROJOP
    1
   10    2
 368.98186000  43.31477800
 7431.30500000
  963.76157000
  213.03648000
   59.22252800
   95.95825500
   10.10202500
    4.04669430
    7.06123070
    1.07976180
    0.43048130
   0.02019030   0.00659410
   0.14205690   0.04639570
   0.46681950   0.15246280
   0.49888230   0.16293450
  -0.00354450   0.10512500
   0.02235120  -0.66291210
   0.01519930  -0.45079620
   0.00502090   0.00249300
  -0.01702310  -0.00845230
  -0.00817850  -0.00406080
    7    1
  35.65921000
  257.29285000
   55.60988700
   16.61604500
    5.56646710
    2.31743290
    0.86527140
    0.32346560
   0.03419650
   0.21466350
   0.52718720
   0.40000690
   0.00786790
   0.01234270
   0.00416270
Spectral Representation Operator
End of Spectral Representation Operator

/V.MCP-QZP.Osanai.6s6p6d4f2g.4s3p4d2f1g.ECP.13el.
Y. Osanai, M.S. Mon, T. Noro, H. Mori, H. Nakashima, M. Klobukowski, E. Miyoshi. Chem. Phys. Lett. 452 (2008) 210-214. doi:10.1016/j.cplett.2007.12.019
VANADIUM (6s,6p,6d,4f,2g) -> [4s,3p,4d,2f,1g]
*******************************************************************************
* Element : V
* Basis : MCP segmented  (4411/411/3111/31/2)
* Effective Charge : 13.0
* Term : 4F   Valence configuration : 1s(2)3d(3)
* SCF energy : -70.59046112 a.u.
* Valence Correlation energy : -0.06877163 a.u.
* References
* Authors : Y. Osanai, M. S. Mon, T. Noro, H. Mori, H. Nakashima, M. Klobukowski, E. Miyoshi,   [inner and valence shell]
* Journal : Chem. Phys. Lett., 452, 210-214 (2008)
* Authors : T. Noro, M. Sekiya, T. Koga, H. Matsuyama,   [valence correlated set]
* Journal : Theor. Chem. Acc. 104, 146 (2000)
*******************************************************************************
    13.0   4
* s-type functions
    6    4
        204.81138000
          7.45004270
          1.31458140
          0.53623560
          0.08494160
          0.03222090
   0.15674590  -0.02797880   0.00000000   0.00000000
  -0.62370660   0.16086500   0.00000000   0.00000000
   0.63828520  -0.22749260   0.00000000   0.00000000
   0.56165830  -0.30195770   0.00000000   0.00000000
   0.00000000   0.00000000   1.00000000   0.00000000
   0.00000000   0.00000000   0.00000000   1.00000000
* p-type functions
    6    3
         84.05751900
         17.12488500
          1.57630340
          0.51398490
          0.25441600
          0.09234600
  -0.06755750   0.00000000   0.00000000
  -0.26859800   0.00000000   0.00000000
   0.66434160   0.00000000   0.00000000
   0.42266690   0.00000000   0.00000000
   0.00000000   1.00000000   0.00000000
   0.00000000   0.00000000   1.00000000
* d-type functions
    6    4
         24.71043300
          6.21991350
          1.97492810
          0.64184310
          0.19504090
          0.05926830
   0.03140340   0.00000000   0.00000000   0.00000000
   0.16906360   0.00000000   0.00000000   0.00000000
   0.40826280   0.00000000   0.00000000   0.00000000
   0.00000000   1.00000000   0.00000000   0.00000000
   0.00000000   0.00000000   1.00000000   0.00000000
   0.00000000   0.00000000   0.00000000   1.00000000
* f-type functions
    4    2
          9.03236900
          2.69466000
          0.93401200
          0.30611500
   0.05017900   0.00000000
   0.33985500   0.00000000
   0.75979000   0.00000000
   0.00000000   1.00000000
* g-type functions
    2    1
          1.86942200
          0.46463400
   0.37323900
   0.82570000
M1
  3
 262.85668000  14.12068300   4.75211350
   0.41461840   0.10163900   0.01662290
M2
  3
  14.700273e2  39.76716000   5.42125080
  44.36107000   3.35455580   0.02996190
COREREP
 1.0
PROJOP
    1
   10    2
 405.95068000  48.33014800
 8260.21360000
 1065.16300000
  234.79466000
   65.19077600
  105.72170000
   11.18804900
    4.49690570
    7.94870910
    1.22153340
    0.48421140
   0.02006660   0.00661040
   0.14125510   0.04653280
   0.46579340   0.15344330
   0.50061450   0.16491420
  -0.00359010   0.10556830
   0.02265320  -0.66613200
   0.01524610  -0.44832020
   0.00495570   0.00251150
  -0.01671430  -0.00847060
  -0.00806040  -0.00408490
    7    1
  40.15012800
  286.89989000
   62.04183300
   18.58258300
    6.24833210
    2.64284120
    0.98602010
    0.36772410
   0.03381070
   0.21344680
   0.52739010
   0.39985810
   0.00803730
   0.01249330
   0.00422680
Spectral Representation Operator
End of Spectral Representation Operator

/Cr.MCP-QZP.Osanai.6s6p6d4f2g.4s3p4d2f1g.ECP.14el.
Y. Osanai, M.S. Mon, T. Noro, H. Mori, H. Nakashima, M. Klobukowski, E. Miyoshi. Chem. Phys. Lett. 452 (2008) 210-214. doi:10.1016/j.cplett.2007.12.019
CHROMIUM (6s,6p,6d,4f,2g) -> [4s,3p,4d,2f,1g]
*******************************************************************************
* Element : Cr
* Basis : MCP segmented  (4411/411/3111/31/2)
* Effective Charge : 14.0
* Term : 7S   Valence configuration : 1s(1)3d(5)
* SCF energy : -85.7191525 a.u.
* Valence Correlation energy : -0.09585171 a.u.
* References
* Authors : Y. Osanai, M. S. Mon, T. Noro, H. Mori, H. Nakashima, M. Klobukowski, E. Miyoshi,   [inner and valence shell]
* Journal : Chem. Phys. Lett., 452, 210-214 (2008)
* Authors : T. Noro, M. Sekiya, T. Koga, H. Matsuyama,   [valence correlated set]
* Journal : Theor. Chem. Acc. 104, 146 (2000)
*******************************************************************************
    14.0   4
* s-type functions
    6    4
        224.58732000
          8.24227190
          1.49645360
          0.60544840
          0.09195060
          0.03438550
   0.15866210  -0.02787190   0.00000000   0.00000000
  -0.63192520   0.15933650   0.00000000   0.00000000
   0.62682440  -0.21681800   0.00000000   0.00000000
   0.57721180  -0.29962850   0.00000000   0.00000000
   0.00000000   0.00000000   1.00000000   0.00000000
   0.00000000   0.00000000   0.00000000   1.00000000
* p-type functions
    6    3
         93.32857400
         19.11278900
          1.77682750
          0.57789930
          0.30900000
          0.10302300
  -0.06790150   0.00000000   0.00000000
  -0.27212480   0.00000000   0.00000000
   0.66432050   0.00000000   0.00000000
   0.42305350   0.00000000   0.00000000
   0.00000000   1.00000000   0.00000000
   0.00000000   0.00000000   1.00000000
* d-type functions
    6    4
         27.39074400
          6.95819480
          2.22420430
          0.72591410
          0.22086300
          0.06719870
   0.03350780   0.00000000   0.00000000   0.00000000
   0.17712410   0.00000000   0.00000000   0.00000000
   0.41639280   0.00000000   0.00000000   0.00000000
   0.00000000   1.00000000   0.00000000   0.00000000
   0.00000000   0.00000000   1.00000000   0.00000000
   0.00000000   0.00000000   0.00000000   1.00000000
* f-type functions
    4    2
         10.52794100
          3.23612800
          1.15845700
          0.40305700
   0.05481900   0.00000000
   0.35773700   0.00000000
   0.73739700   0.00000000
   0.00000000   1.00000000
* g-type functions
    2    1
          2.37406900
          0.60003400
   0.39575200
   0.80782700
M1
  3
 285.94588000  15.27690600   4.04526030
   0.37315570   0.10483520   0.01107010
M2
  3
  15.188675e2  43.18292500   6.85258130
  42.91745800   3.15633500   0.01626680
COREREP
 1.0
PROJOP
    1
   10    2
 444.71454000  53.58936400
 9149.88470000
 1172.87950000
  257.77843000
   71.47481000
  116.02256000
   12.33412300
    4.97095210
    8.88796790
    1.37020290
    0.54015830
   0.01994790   0.00662330
   0.14047380   0.04664170
   0.46479730   0.15432720
   0.50232050   0.16678610
  -0.00363220   0.10590550
   0.02294130  -0.66891110
   0.01530460  -0.44624590
   0.00489840   0.00252410
  -0.01646160  -0.00848250
  -0.00797660  -0.00411030
    7    1
  44.86965200
  318.06794000
   68.80569700
   20.65136500
    6.96552810
    2.98790130
    1.11341940
    0.41413940
   0.03348810
   0.21245700
   0.52765860
   0.39958370
   0.00817610
   0.01262560
   0.00429350
Spectral Representation Operator
End of Spectral Representation Operator

/Mn.MCP-QZP.Osanai.6s6p6d4f2g.4s3p4d2f1g.ECP.15el.
Y. Osanai, M.S. Mon, T. Noro, H. Mori, H. Nakashima, M. Klobukowski, E. Miyoshi. Chem. Phys. Lett. 452 (2008) 210-214. doi:10.1016/j.cplett.2007.12.019
MANGANESE (6s,6p,6d,4f,2g) -> [4s,3p,4d,2f,1g]
*******************************************************************************
* Element : Mn
* Basis : MCP segmented  (4411/411/3111/31/2)
* Effective Charge : 15.0
* Term : 6S   Valence configuration : 1s(2)3d(5)
* SCF energy : -102.72539301 a.u.
* Valence Correlation energy : -0.12386089 a.u.
* References
* Authors : Y. Osanai, M. S. Mon, T. Noro, H. Mori, H. Nakashima, M. Klobukowski, E. Miyoshi,   [inner and valence shell]
* Journal : Chem. Phys. Lett., 452, 210-214 (2008)
* Authors : T. Noro, M. Sekiya, T. Koga, H. Matsuyama,   [valence correlated set]
* Journal : Theor. Chem. Acc. 104, 146 (2000)
*******************************************************************************
    15.0   4
* s-type functions
    6    4
        245.32007000
          9.07656730
          1.68608090
          0.67638740
          0.09864570
          0.03640740
   0.15995870  -0.02753050   0.00000000   0.00000000
  -0.63557090   0.15634960   0.00000000   0.00000000
   0.61236660  -0.20485960   0.00000000   0.00000000
   0.59438480  -0.29845960   0.00000000   0.00000000
   0.00000000   0.00000000   1.00000000   0.00000000
   0.00000000   0.00000000   0.00000000   1.00000000
* p-type functions
    6    3
        103.07055000
         21.20685600
          1.98709750
          0.64427940
          0.37852000
          0.11504300
  -0.06822020   0.00000000   0.00000000
  -0.27332240   0.00000000   0.00000000
   0.66249500   0.00000000   0.00000000
   0.42559170   0.00000000   0.00000000
   0.00000000   1.00000000   0.00000000
   0.00000000   0.00000000   1.00000000
* d-type functions
    6    4
         30.09900700
          7.71351790
          2.48228890
          0.81456440
          0.24897770
          0.07610190
   0.03472010   0.00000000   0.00000000   0.00000000
   0.18240070   0.00000000   0.00000000   0.00000000
   0.42293580   0.00000000   0.00000000   0.00000000
   0.00000000   1.00000000   0.00000000   0.00000000
   0.00000000   0.00000000   1.00000000   0.00000000
   0.00000000   0.00000000   0.00000000   1.00000000
* f-type functions
    4    2
         12.38965900
          3.77942900
          1.35970400
          0.46212100
   0.05439000   0.00000000
   0.36714900   0.00000000
   0.72878100   0.00000000
   0.00000000   1.00000000
* g-type functions
    2    1
          2.65699700
          0.69574100
   0.41308800
   0.78944100
M1
  3
 288.02973000  17.73696100   3.11754240
   0.33516860   0.10813570   0.00587350
M2
  3
  15.845095e2  47.40664700  10.33350000
  41.83576300   2.95936810   0.00754270
COREREP
 1.0
PROJOP
    1
   10    2
 485.26714000  59.08053000
10103.62500000
 1287.13320000
  282.01533000
   78.07887900
  126.87164000
   13.54084500
    5.46882660
    9.87542680
    1.52601300
    0.59828690
   0.01983380   0.00663340
   0.13971130   0.04672640
   0.46382830   0.15512730
   0.50400410   0.16856410
  -0.00367200   0.10614610
   0.02322320  -0.67130930
   0.01537740  -0.44451090
   0.00483980   0.00252730
  -0.01624550  -0.00848350
  -0.00793380  -0.00414310
    7    1
  49.80459000
  350.80153000
   75.89971700
   22.82116700
    7.71723790
    3.35251600
    1.24717160
    0.46260990
   0.03321850
   0.21166420
   0.52799810
   0.39919190
   0.00828360
   0.01273690
   0.00436720
Spectral Representation Operator
End of Spectral Representation Operator

/Fe.MCP-QZP.Osanai.6s6p6d4f2g.4s3p4d2f1g.ECP.16el.
Y. Osanai, M.S. Mon, T. Noro, H. Mori, H. Nakashima, M. Klobukowski, E. Miyoshi. Chem. Phys. Lett. 452 (2008) 210-214. doi:10.1016/j.cplett.2007.12.019
IRON (6s,6p,6d,4f,2g) -> [4s,3p,4d,2f,1g]
*******************************************************************************
* Element : Fe
* Basis : MCP segmented  (4411/411/3111/31/2)
* Effective Charge : 16.0
* Term : 5D   Valence configuration : 1s(2)3d(6)
* SCF energy : -122.20315696 a.u.
* Valence Correlation energy : -0.17984619 a.u.
* References
* Authors : Y. Osanai, M. S. Mon, T. Noro, H. Mori, H. Nakashima, M. Klobukowski, E. Miyoshi,   [inner and valence shell]
* Journal : Chem. Phys. Lett., 452, 210-214 (2008)
* Authors : T. Noro, M. Sekiya, T. Koga, H. Matsuyama,   [valence correlated set]
* Journal : Theor. Chem. Acc. 104, 146 (2000)
*******************************************************************************
    16.0   4
* s-type functions
    6    4
        267.28893000
          9.95020790
          1.88893140
          0.75260510
          0.10712150
          0.03897920
   0.16252710  -0.02783350   0.00000000   0.00000000
  -0.64851180   0.15757980   0.00000000   0.00000000
   0.61585630  -0.20352590   0.00000000   0.00000000
   0.59561820  -0.29189500   0.00000000   0.00000000
   0.00000000   0.00000000   1.00000000   0.00000000
   0.00000000   0.00000000   0.00000000   1.00000000
* p-type functions
    6    3
        113.34696000
         23.41353400
          2.21063180
          0.71575550
          0.46586600
          0.13187100
  -0.06820340   0.00000000   0.00000000
  -0.28046130   0.00000000   0.00000000
   0.66539220   0.00000000   0.00000000
   0.42222360   0.00000000   0.00000000
   0.00000000   1.00000000   0.00000000
   0.00000000   0.00000000   1.00000000
* d-type functions
    6    4
         32.20006700
          8.29440120
          2.66962310
          0.86906600
          0.26162570
          0.07876040
   0.04005130   0.00000000   0.00000000   0.00000000
   0.19831310   0.00000000   0.00000000   0.00000000
   0.43037390   0.00000000   0.00000000   0.00000000
   0.00000000   1.00000000   0.00000000   0.00000000
   0.00000000   0.00000000   1.00000000   0.00000000
   0.00000000   0.00000000   0.00000000   1.00000000
* f-type functions
    4    2
         14.29038100
          4.40305400
          1.61600800
          0.55767200
   0.05421800   0.00000000
   0.37125900   0.00000000
   0.72152400   0.00000000
   0.00000000   1.00000000
* g-type functions
    2    1
          3.10989500
          0.84775100
   0.42861600
   0.77053900
M1
  3
 340.05696000  19.56756300   4.96376200
   0.32342350   0.09398700   0.00621120
M2
  3
   1.557096e3  44.68722000  10.15912500
  38.84096000   2.76851720   0.00946020
COREREP
 1.0
PROJOP
    1
   10    2
 527.70666000  64.90588200
11126.72300000
 1408.33210000
  307.56303000
   85.01284600
  138.27168000
   14.80998200
    5.99368800
   10.92424000
    1.69031350
    0.66003590
   0.01972080   0.00664030
   0.13894930   0.04678660
   0.46286040   0.15585290
   0.50570120   0.17027820
  -0.00370880   0.10630700
   0.02348790  -0.67324220
   0.01546160  -0.44317930
   0.00481080   0.00254510
  -0.01610510  -0.00852030
  -0.00784830  -0.00415210
    7    1
  55.05453500
  385.42345000
   83.39327600
   25.11377200
    8.51251460
    3.73841460
    1.38994210
    0.51405370
   0.03295090
   0.21081640
   0.52816210
   0.39907940
   0.00841830
   0.01287540
   0.00440830
Spectral Representation Operator
End of Spectral Representation Operator

/Co.MCP-QZP.Osanai.6s6p6d4f2g.4s3p4d2f1g.ECP.17el.
Y. Osanai, M.S. Mon, T. Noro, H. Mori, H. Nakashima, M. Klobukowski, E. Miyoshi. Chem. Phys. Lett. 452 (2008) 210-214. doi:10.1016/j.cplett.2007.12.019
COBALT (6s,6p,6d,4f,2g) -> [4s,3p,4d,2f,1g]
*******************************************************************************
* Element : Co
* Basis : MCP segmented  (4411/411/3111/31/2)
* Effective Charge : 17.0
* Term : 4F   Valence configuration : 1s(2)3d(7)
* SCF energy : -144.21721085 a.u.
* Valence Correlation energy : -0.23100935 a.u.
* References
* Authors : Y. Osanai, M. S. Mon, T. Noro, H. Mori, H. Nakashima, M. Klobukowski, E. Miyoshi,   [inner and valence shell]
* Journal : Chem. Phys. Lett., 452, 210-214 (2008)
* Authors : T. Noro, M. Sekiya, T. Koga, H. Matsuyama,   [valence correlated set]
* Journal : Theor. Chem. Acc. 104, 146 (2000)
*******************************************************************************
    17.0   4
* s-type functions
    6    4
        290.23419000
         10.87067800
          2.09312440
          0.82823990
          0.11497670
          0.04131040
   0.16527640  -0.02798570   0.00000000   0.00000000
  -0.65944940   0.15745940   0.00000000   0.00000000
   0.62168610  -0.20157300   0.00000000   0.00000000
   0.59348250  -0.28440020   0.00000000   0.00000000
   0.00000000   0.00000000   1.00000000   0.00000000
   0.00000000   0.00000000   0.00000000   1.00000000
* p-type functions
    6    3
        124.05217000
         25.72304000
          2.44437430
          0.78987810
          0.54973000
          0.14733200
  -0.06865470   0.00000000   0.00000000
  -0.28702500   0.00000000   0.00000000
   0.66736170   0.00000000   0.00000000
   0.41976730   0.00000000   0.00000000
   0.00000000   1.00000000   0.00000000
   0.00000000   0.00000000   1.00000000
* d-type functions
    6    4
         35.20167200
          9.10969350
          2.93430810
          0.95068540
          0.28316710
          0.08434290
   0.04424540   0.00000000   0.00000000   0.00000000
   0.20867040   0.00000000   0.00000000   0.00000000
   0.43310480   0.00000000   0.00000000   0.00000000
   0.00000000   1.00000000   0.00000000   0.00000000
   0.00000000   0.00000000   1.00000000   0.00000000
   0.00000000   0.00000000   0.00000000   1.00000000
* f-type functions
    4    2
         16.27291100
          5.06960300
          1.89055200
          0.66128100
   0.05450200   0.00000000
   0.37483400   0.00000000
   0.71522500   0.00000000
   0.00000000   1.00000000
* g-type functions
    2    1
          3.47974400
          0.97519500
   0.43912500
   0.75712800
M1
  3
 383.24037000  21.39875700   8.61290820
   0.30329990   0.08265340   0.00584450
M2
  3
  14.921313e2  42.15018000  12.20833400
  36.10671000   2.61333300   0.01164110
COREREP
 1.0
PROJOP
    1
   10    2
 571.95154000  70.96923000
12220.42800000
 1536.48730000
  334.41554000
   92.27501500
  150.24088000
   16.14143300
    6.54323570
   12.02274400
    1.86203630
    0.72408990
   0.01961400   0.00664600
   0.13821050   0.04683140
   0.46191830   0.15651700
   0.50736890   0.17191760
  -0.00374370   0.10638840
   0.02374880  -0.67488720
   0.01555710  -0.44209850
   0.00477800   0.00255470
  -0.01598190  -0.00854530
  -0.00780020  -0.00417060
    7    1
  60.52299400
  421.67490000
   91.22709000
   27.50983000
    9.34304510
    4.14421590
    1.53920680
    0.56762220
   0.03272330
   0.21011860
   0.52838740
   0.39887020
   0.00852580
   0.01299370
   0.00445840
Spectral Representation Operator
End of Spectral Representation Operator

/Ni.MCP-QZP.Osanai.6s6p6d4f2g.4s3p4d2f1g.ECP.18el.
Y. Osanai, M.S. Mon, T. Noro, H. Mori, H. Nakashima, M. Klobukowski, E. Miyoshi. Chem. Phys. Lett. 452 (2008) 210-214. doi:10.1016/j.cplett.2007.12.019
NICKEL (6s,6p,6d,4f,2g) -> [4s,3p,4d,2f,1g]
*******************************************************************************
* Element : Ni
* Basis : MCP segmented  (4411/411/3111/31/2)
* Effective Charge : 18.0
* Term : 3F   Valence configuration : 1s(2)3d(8)
* SCF energy : -168.91048848 a.u.
* Valence Correlation energy : -0.28976563 a.u.
* References
* Authors : Y. Osanai, M. S. Mon, T. Noro, H. Mori, H. Nakashima, M. Klobukowski, E. Miyoshi,   [inner and valence shell]
* Journal : Chem. Phys. Lett., 452, 210-214 (2008)
* Authors : T. Noro, M. Sekiya, T. Koga, H. Matsuyama,   [valence correlated set]
* Journal : Theor. Chem. Acc. 104, 146 (2000)
*******************************************************************************
    18.0   4
* s-type functions
    6    4
        314.40556000
         11.82748900
          2.31543490
          0.91008060
          0.12303890
          0.04366530
   0.16779070  -0.02810490   0.00000000   0.00000000
  -0.67091150   0.15752450   0.00000000   0.00000000
   0.62567050  -0.19899250   0.00000000   0.00000000
   0.59343660  -0.27788300   0.00000000   0.00000000
   0.00000000   0.00000000   1.00000000   0.00000000
   0.00000000   0.00000000   0.00000000   1.00000000
* p-type functions
    6    3
        135.48384000
         28.16256800
          2.68787800
          0.86673030
          0.63681000
          0.16337000
  -0.06862000   0.00000000   0.00000000
  -0.29389440   0.00000000   0.00000000
   0.66953650   0.00000000   0.00000000
   0.41699890   0.00000000   0.00000000
   0.00000000   1.00000000   0.00000000
   0.00000000   0.00000000   1.00000000
* d-type functions
    6    4
         38.46743100
          9.99122100
          3.21932700
          1.03868890
          0.30649630
          0.09044090
   0.04835200   0.00000000   0.00000000   0.00000000
   0.21755540   0.00000000   0.00000000   0.00000000
   0.43508200   0.00000000   0.00000000   0.00000000
   0.00000000   1.00000000   0.00000000   0.00000000
   0.00000000   0.00000000   1.00000000   0.00000000
   0.00000000   0.00000000   0.00000000   1.00000000
* f-type functions
    4    2
         18.32931600
          5.77282000
          2.17979100
          0.77083600
   0.05498600   0.00000000
   0.37734500   0.00000000
   0.71037900   0.00000000
   0.00000000   1.00000000
* g-type functions
    2    1
          3.91900100
          1.11811500
   0.44517400
   0.74882100
M1
  3
 572.18640000  27.08309700   8.83167940
   0.26205190   0.07862980   0.00238530
M2
  3
  13.263807e2  40.03615900  21.75301700
  34.83378100   2.61620860   0.00723880
COREREP
 1.0
PROJOP
    1
   10    2
 618.02788000  77.29278000
13390.08700000
 1671.98640000
  362.62411000
   99.87370700
  162.78998000
   17.53622200
    7.11841220
   13.17595400
    2.04132000
    0.79068010
   0.01951080   0.00665010
   0.13748230   0.04686000
   0.46098800   0.15712500
   0.50903040   0.17349990
  -0.00377670   0.10639830
   0.02400400  -0.67625490
   0.01566260  -0.44125620
   0.00475080   0.00256300
  -0.01588460  -0.00856970
  -0.00776750  -0.00419060
    7    1
  66.23035400
  459.64545000
   99.41878900
   30.01454800
   10.21087500
    4.57040680
    1.69554560
    0.62351540
   0.03252130
   0.20950430
   0.52861830
   0.39865540
   0.00862050
   0.01310280
   0.00450880
Spectral Representation Operator
End of Spectral Representation Operator

/Cu.MCP-QZP.Osanai.6s6p6d4f2g.4s3p4d2f1g.ECP.19el.
Y. Osanai, M.S. Mon, T. Noro, H. Mori, H. Nakashima, M. Klobukowski, E. Miyoshi. Chem. Phys. Lett. 452 (2008) 210-214. doi:10.1016/j.cplett.2007.12.019
COPPER (6s,6p,6d,4f,2g) -> [4s,3p,4d,2f,1g]
*******************************************************************************
* Element : Cu
* Basis : MCP segmented  (4411/411/3111/31/2)
* Effective Charge : 19.0
* Term : 2S   Valence configuration : 1s(1)3d(10)
* SCF energy : -195.87922467 a.u.
* Valence Correlation energy : -0.40419844 a.u.
* References
* Authors : Y. Osanai, M. S. Mon, T. Noro, H. Mori, H. Nakashima, M. Klobukowski, E. Miyoshi,   [inner and valence shell]
* Journal : Chem. Phys. Lett., 452, 210-214 (2008)
* Authors : T. Noro, M. Sekiya, T. Koga, H. Matsuyama,   [valence correlated set]
* Journal : Theor. Chem. Acc. 104, 146 (2000)
*******************************************************************************
    19.0   4
* s-type functions
    6    4
        339.72009000
         12.82762600
          2.54632660
          0.99448500
          0.13116400
          0.04600190
   0.16975260  -0.02791920   0.00000000   0.00000000
  -0.67482990   0.15541390   0.00000000   0.00000000
   0.62036650  -0.19240670   0.00000000   0.00000000
   0.60091330  -0.27567320   0.00000000   0.00000000
   0.00000000   0.00000000   1.00000000   0.00000000
   0.00000000   0.00000000   0.00000000   1.00000000
* p-type functions
    6    3
        147.44388000
         30.71439400
          2.94214190
          0.94670090
          0.72504500
          0.18030300
  -0.06941490   0.00000000   0.00000000
  -0.29578260   0.00000000   0.00000000
   0.67022880   0.00000000   0.00000000
   0.41632890   0.00000000   0.00000000
   0.00000000   1.00000000   0.00000000
   0.00000000   0.00000000   1.00000000
* d-type functions
    6    4
         41.98124300
         10.93772300
          3.52495170
          1.13311600
          0.33150860
          0.09698740
   0.04931150   0.00000000   0.00000000   0.00000000
   0.22176560   0.00000000   0.00000000   0.00000000
   0.43716040   0.00000000   0.00000000   0.00000000
   0.00000000   1.00000000   0.00000000   0.00000000
   0.00000000   0.00000000   1.00000000   0.00000000
   0.00000000   0.00000000   0.00000000   1.00000000
* f-type functions
    4    2
         21.14847600
          6.62500600
          2.50576600
          0.88830700
   0.05242000   0.00000000
   0.37468900   0.00000000
   0.71338500   0.00000000
   0.00000000   1.00000000
* g-type functions
    2    1
          4.33413900
          1.27040600
   0.45262900
   0.73734100
M1
  3
  12.597314e2  31.12621400   9.91964540
   0.22343550   0.07644760   0.00052090
M2
  3
  10.970738e2  41.96034300  19.97846800
  34.29321700   2.55105510   0.00260800
COREREP
 1.0
PROJOP
    1
   10    2
 665.94556000  83.88039200
14640.19300000
 1815.12830000
  392.22627000
  107.81492000
  175.93171000
   18.99526800
    7.71966020
   14.38462500
    2.22830250
    0.85987140
   0.01941100   0.00665290
   0.13676310   0.04687420
   0.46006570   0.15768300
   0.51068960   0.17503390
  -0.00380790   0.10634260
   0.02425540  -0.67737330
   0.01577790  -0.44062570
   0.00472880   0.00257060
  -0.01581020  -0.00859460
  -0.00774730  -0.00421150
    7    1
  72.17883200
  499.37117000
  107.97407000
   32.62930100
   11.11641700
    5.01717200
    1.85905110
    0.68176360
   0.03234010
   0.20895490
   0.52884680
   0.39844880
   0.00870500
   0.01320470
   0.00455880
Spectral Representation Operator
End of Spectral Representation Operator

/Zn.MCP-QZP.Osanai.6s6p6d4f2g.4s3p4d2f1g.ECP.20el.
Y. Osanai, M.S. Mon, T. Noro, H. Mori, H. Nakashima, M. Klobukowski, E. Miyoshi. Chem. Phys. Lett. 452 (2008) 210-214. doi:10.1016/j.cplett.2007.12.019
ZINC (6s,6p,6d,4f,2g) -> [4s,3p,4d,2f,1g]
*******************************************************************************
* Element : Zn
* Basis : MCP segmented  (4411/411/3111/31/2)
* Effective Charge : 20.0
* Term : 1S   Valence configuration : 1s(2)3d(10)
* SCF energy : -223.19572816 a.u.
* Valence Correlation energy : -0.41207897 a.u.
* References
* Authors : Y. Osanai, M. S. Mon, T. Noro, H. Mori, H. Nakashima, M. Klobukowski, E. Miyoshi,   [inner and valence shell]
* Journal : Chem. Phys. Lett., 452, 210-214 (2008)
* Authors : T. Noro, M. Sekiya, T. Koga, H. Matsuyama,   [valence correlated set]
[...]
    0.78509060
   0.02029520   0.00848130   0.00411480   0.00221350   0.00105780
   0.10834300   0.04527620   0.02196610   0.01181640   0.00564680
   0.39461250   0.16490720   0.08000620   0.04303840   0.02056700
   0.60862740   0.25434330   0.12339690   0.06637990   0.03172140
  -0.00469480   0.05669580   0.03294290   0.01016000   0.00304430
   0.03836570  -0.46331960  -0.26921010  -0.08302790  -0.02487850
   0.05325300  -0.64310370  -0.37367300  -0.11524560  -0.03453220
   0.01018370   0.01172300  -0.29407690  -0.32962400  -0.19043490
  -0.03648300  -0.04199730   1.05352280   1.18086960   0.68222830
  -0.00931130  -0.01071870   0.26888380   0.30138570   0.17412070
   0.00000000   0.01142170  -0.01991320  -1.31536450  -1.30327550
   0.00000000   0.00270700  -0.00471950  -0.31174480  -0.30887970
   0.00000000   0.00000000   0.00328200   0.00303740   1.26628550
   0.00000000   0.00000000   0.00067750   0.00062700   0.26138560
   10    4
  11.119884e2 268.29584000  60.82276000  10.21378300
 8953.69050000
 1723.75090000
  496.47987000
  169.59196000
   78.04048100
   31.08456900
   14.10623200
    5.98943270
    2.44980590
    0.96196720
   0.02256170   0.01279000   0.00663230   0.00293610
   0.15275000   0.08659240   0.04490280   0.01987840
   0.47005840   0.26647130   0.13817950   0.06117170
   0.48492990   0.27490180   0.14255120   0.06310710
   0.03200250  -0.50895560  -0.40432810  -0.19736210
   0.04082510  -0.64926740  -0.51579560  -0.25177200
  -0.01009800  -0.03452140   0.68602290   0.49386380
  -0.00900840  -0.03079650   0.61200060   0.44057560
   0.00000000   0.00881120   0.01588000  -0.80300420
   0.00000000   0.00544570   0.00981460  -0.49629590
   10    2
 212.47517000  39.57658600
  856.19018000
  234.64886000
   83.57131100
   32.49776700
   29.44780200
   12.37653200
    5.12643720
    3.34602410
    1.32472140
    0.48531860
   0.03479400   0.01915070
   0.21947020   0.12079670
   0.52708880   0.29011040
   0.38781730   0.21345520
   0.00994210  -0.24282630
   0.02581130  -0.63041680
   0.01589790  -0.38829110
  -0.00309530  -0.00686270
  -0.00520150  -0.01153260
  -0.00208200  -0.00461620
    5    1
  16.44627400
  144.49196000
   46.19545500
   17.87265200
    7.18667000
    2.72933120
   0.04378590
   0.22141080
   0.45406710
   0.43562530
   0.15188930
Spectral Representation Operator
End of Spectral Representation Operator

/Rn.MCP-QZP.Noro.9s8p11d3f2g.4s4p4d2f1g.ECP.18el.
T. Noro, M. Sekiya, Y. Osanai, E. Miyoshi, T. Koga. J. Chem. Phys. 119 (2003) 5142. doi:10.1063/1.1597651
RADON (9s,8p,11d,3f,2g) -> [4s,4p,4d,2f,1g]
*******************************************************************************
* Element : Rn
* Basis : MCP segmented  (6111/5111/7211/21/2)
* Effective Charge : 18.0
* Term : 1S   Valence configuration : 1s(2)2p(6)
* SCF energy : -111.37138185 a.u.
* Valence Correlation energy : -0.15112403 a.u.
* References
* Authors : E. Miyoshi, Y. Sakai, K. Tanaka, M. Masamura,   [inner and valence shell]
* Journal : J. Mol. Struct. (THEOCHEM), 451, 73-79 (1998)
* Authors : T. Noro, M. Sekiya, Y. Osanai, E. Miyoshi, T. Koga,   [valence correlated set]
* Journal : J. Chem. Phys. 119, 5142 (2003)
*******************************************************************************
    18.0   4
* s-type functions
    9    4
       6274.55550000
        182.88388000
         40.95536500
          8.10092270
          2.23677890
          1.27159650
          0.43182350
          0.22091870
          0.10204850
  -0.03113930   0.00000000   0.00000000   0.00000000
   0.12252360   0.00000000   0.00000000   0.00000000
  -0.31204320   0.00000000   0.00000000   0.00000000
   0.64692950   0.00000000   0.00000000   0.00000000
  -0.62766450   0.00000000   0.00000000   0.00000000
  -0.54592420   0.00000000   0.00000000   0.00000000
   0.00000000   1.00000000   0.00000000   0.00000000
   0.00000000   0.00000000   1.00000000   0.00000000
   0.00000000   0.00000000   0.00000000   1.00000000
* p-type functions
    8    4
        661.78804000
         49.37687600
         10.96573100
          2.38249740
          1.71708430
          0.33656580
          0.14308340
          0.06091660
   0.02484800   0.00000000   0.00000000   0.00000000
  -0.09540260   0.00000000   0.00000000   0.00000000
   0.22806280   0.00000000   0.00000000   0.00000000
  -0.19003900   0.00000000   0.00000000   0.00000000
  -0.28637300   0.00000000   0.00000000   0.00000000
   0.00000000   1.00000000   0.00000000   0.00000000
   0.00000000   0.00000000   1.00000000   0.00000000
   0.00000000   0.00000000   0.00000000   1.00000000
* d-type functions
   11    4
        368.73891000
         98.94864400
         16.21745300
         10.41379300
          2.27025000
          0.98664350
          0.38808440
          1.99389000
          0.46605000
          0.84652000
          0.19782700
   0.03660530   0.00000000   0.00000000   0.00000000
   0.17004440   0.00000000   0.00000000   0.00000000
  -0.22151730   0.00000000   0.00000000   0.00000000
  -0.18034540   0.00000000   0.00000000   0.00000000
   0.55053650   0.00000000   0.00000000   0.00000000
   0.45217500   0.00000000   0.00000000   0.00000000
   0.12182520   0.00000000   0.00000000   0.00000000
   0.00000000  -0.20139800   0.00000000   0.00000000
   0.00000000   1.06909700   0.00000000   0.00000000
   0.00000000   0.00000000   1.00000000   0.00000000
   0.00000000   0.00000000   0.00000000   1.00000000
* f-type functions
    3    2
         26.50043700
          0.55011300
          0.20347900
  -0.07099800   0.00000000
   0.99771600   0.00000000
   0.00000000   1.00000000
* g-type functions
    2    1
          0.55966900
          0.24896600
   0.69117200
   0.40349000
M1
  3
 559.91707000  22.50929000   3.45627370
   1.69548370   1.29840410   0.58718870
M2
  3
  50.991392e2  44.97360700   1.24054940
 365.14049000   9.20536680   0.06562750
COREREP
 1.0
PROJOP
    3
   14    5
   7.307910e3  13.434916e2 335.04200000  82.93474000  16.87538700
    6.748933e5
49861.47600000
 7302.41990000
 1539.26160000
 3178.28760000
  318.06118000
  134.73430000
  232.87555000
   38.36432500
   15.78896500
    9.51950170
    4.15148610
    1.96718970
    0.83354640
   0.02049630   0.00859330   0.00417260   0.00224770   0.00108520
   0.10831450   0.04541210   0.02205040   0.01187840   0.00573480
   0.39349540   0.16497740   0.08010690   0.04315300   0.02083400
   0.60991200   0.25571250   0.12416450   0.06688650   0.03229240
  -0.00466720   0.05547730   0.03231800   0.01002690   0.00303170
   0.03823760  -0.45451220  -0.26477400  -0.08214780  -0.02483840
   0.05481630  -0.65157530  -0.37957220  -0.11776460  -0.03560760
   0.01021130   0.01197030  -0.29233560  -0.32923920  -0.19266210
  -0.03675010  -0.04308090   1.05210790   1.18492260   0.69338540
  -0.00942370  -0.01104710   0.26978790   0.30384510   0.17780210
   0.00000000   0.01177830  -0.01999010  -1.32043980  -1.32940390
   0.00000000   0.00278100  -0.00471980  -0.31176790  -0.31388440
   0.00000000   0.00000000   0.00325730   0.00340200   1.28701040
   0.00000000   0.00000000   0.00064630   0.00067500   0.25535500
   10    4
  11.449259e2 277.90762000  63.85958000  11.09442300
 9284.30440000
 1781.55760000
  512.06667000
  174.69686000
   80.56917500
   32.08910400
   14.60451000
    6.22501530
    2.57915430
    1.02651510
   0.02253830   0.01279580   0.00666000   0.00299250
   0.15237320   0.08650770   0.04502580   0.02023130
   0.46955320   0.26658200   0.13875150   0.06234470
   0.48575990   0.27578310   0.14354050   0.06449650
   0.03212730  -0.50790450  -0.40552980  -0.20121160
   0.04113890  -0.65037030  -0.51927980  -0.25765090
  -0.01008790  -0.03477340   0.68679550   0.50482660
  -0.00899850  -0.03101820   0.61262800   0.45031000
   0.00000000   0.00878320   0.01616950  -0.81401330
   0.00000000   0.00531470   0.00978410  -0.49255500
   10    2
 220.35392000  41.91956000
  886.06278000
  242.72960000
   86.47772400
   33.66670300
   30.59515200
   12.91376200
    5.37623720
    3.55075190
    1.42907960
    0.53148690
   0.03444230   0.01907750
   0.21784220   0.12066210
   0.52575110   0.29121180
   0.38973070   0.21587060
   0.01012050  -0.23994730
   0.02653620  -0.62914610
   0.01651820  -0.39163000
  -0.00331980  -0.00710690
  -0.00555900  -0.01190080
  -0.00215120  -0.00460530
    5    1
  18.14919000
  145.96212000
   46.72784400
   18.14778800
    7.36523580
    2.84159980
   0.04613230
   0.22953180
   0.45881010
   0.42617850
   0.14255530
Spectral Representation Operator
End of Spectral Representation Operator

/Fr.MCP-QZP.Anjima.10s11p2d1f.3s4p2d1f.ECP.9el.
H. Anjima, S. Tsukamoto, H. Mori, H. Mine, M. Klobukowski, E. Miyoshi. J. Comput. Chem. 28 (2007) 2424-2430. doi:10.1002/jcc.20612
FRANCIUM (10s,11p,2d,1f) -> [3s,4p,2d,1f]
*******************************************************************************
* Element : Fr
* Basis : MCP segmented  (991/8111/11/1)
* Effective Charge : 9.0
* Term : 2S   Valence configuration : 1s(2)2p(6)2s(1)
* SCF energy : -19.14876038 a.u.
* References
* Authors : H. Anjima, S. Tsukamoto, H. Mori, H. Mine, M. Klobukowski, E. Miyoshi,   [inner and valence shell]
* Journal : J. Comput. Chem. 28, 2424-2430 (2007)
* Authors : T. Noro, M. Sekiya, Y. Osanai, E. Miyoshi, T. Koga,   [valence correlated set]
* Journal : J. Chem. Phys. 119, 5142 (2003)
*******************************************************************************
     9.0   3
* s-type functions
   10    3
       6573.29390000
        189.36728000
         42.19467000
          8.51414550
          2.17526240
          1.34605290
          0.36852560
          0.15375130
          0.03159920
          0.01416560
  -0.01619720   0.00414400   0.00000000
   0.10262970  -0.02625750   0.00000000
  -0.30630030   0.07851140   0.00000000
   0.69856480  -0.18185090   0.00000000
  -0.83098970   0.23828500   0.00000000
  -0.37333010   0.09462080   0.00000000
   0.99136200  -0.37730670   0.00000000
   0.35202230  -0.27761780   0.00000000
   0.00836470   0.71467610   0.00000000
   0.00000000   0.00000000   1.00000000
* p-type functions
   11    4
        683.35937000
         50.72296000
         15.17766900
          6.49306600
          2.71695170
          1.09524400
          0.33243630
          0.12129430
          0.19615000
          0.03616700
          0.01571800
   0.02094600   0.00000000   0.00000000   0.00000000
  -0.10645820   0.00000000   0.00000000   0.00000000
   0.14881800   0.00000000   0.00000000   0.00000000
   0.22507490   0.00000000   0.00000000   0.00000000
  -0.52361600   0.00000000   0.00000000   0.00000000
  -0.11632760   0.00000000   0.00000000   0.00000000
   0.78336830   0.00000000   0.00000000   0.00000000
   0.35952180   0.00000000   0.00000000   0.00000000
   0.00000000   1.00000000   0.00000000   0.00000000
   0.00000000   0.00000000   1.00000000   0.00000000
   0.00000000   0.00000000   0.00000000   1.00000000
* d-type functions
    2    2
          1.49748900
          0.05194800
   1.00000000   0.00000000
   0.00000000   1.00000000
* f-type functions
    1    1
          0.05993800
   1.00000000
M1
  3
 194.03494000  18.46967900   3.06090990
   4.48049570   1.88298910   1.05536250
M2
  3
  88.198531e2  17.35581400   1.44948490
  11.798805e2  17.45806100   0.95960100
COREREP
 1.0
PROJOP
    3
   16    5
  75.123008e2  13.872443e2 347.85060000  87.28237800  18.46371100
   72.269049e4
53108.93800000
 7712.36710000
 1613.53070000
 3378.13580000
  328.89934000
  139.58125000
  241.79016000
   39.56471400
   16.02363500
    9.82949530
    4.11838140
    2.06248600
    0.83827880
    0.37172740
    0.15014260
   0.02054430   0.00863450   0.00419530   0.00226370   0.00110380
   0.10731460   0.04510270   0.02191460   0.01182450   0.00576590
   0.38875150   0.16338640   0.07938650   0.04283460   0.02088730
   0.61354100   0.25786210   0.12529050   0.06760310   0.03296500
  -0.00480780   0.05371810   0.03142890   0.00985110   0.00302390
   0.04033520  -0.45066560  -0.26367100  -0.08264510  -0.02536870
   0.05848540  -0.65345810  -0.38231880  -0.11983410  -0.03678420
   0.01089230   0.01201250  -0.28928750  -0.32709140  -0.19370050
  -0.03975550  -0.04384420   1.05586560   1.19384510   0.70698410
  -0.01021080  -0.01126100   0.27118940   0.30662820   0.18158240
   0.00000000   0.01241260  -0.02591820  -1.34861640  -1.37603900
   0.00000000   0.00280000  -0.00584660  -0.30421840  -0.31040430
   0.00000000   0.00000000   0.00451830   0.01404020   1.33575580
   0.00000000   0.00000000   0.00079580   0.00247290   0.23526470
   0.00000000   0.00000000   0.00000000  -0.00228030  -0.00378440
   0.00000000   0.00000000   0.00000000  -0.00082430  -0.00136810
   10    4
  11.788225e2 288.09880000  67.34266000  12.35661000
 9711.09540000
 1857.04600000
  532.78560000
  181.69358000
   83.65691200
   33.35476100
   15.17766900
    6.49306600
    2.71695170
    1.09524400
   0.02223380   0.01264410   0.00660640   0.00301050
   0.15028200   0.08546380   0.04465360   0.02034870
   0.46567000   0.26482180   0.13836550   0.06305340
   0.49012160   0.27872710   0.14563090   0.06636430
   0.03289260  -0.49966360  -0.40121500  -0.20223890
   0.04319470  -0.65616090  -0.52687760  -0.26558120
  -0.01043190  -0.03578660   0.68143220   0.51123840
  -0.00946180  -0.03245870   0.61806460   0.46369740
   0.00000000   0.00909250   0.01666750  -0.82244310
   0.00000000   0.00543270   0.00995860  -0.49140100
    8    3
 228.76084000  44.69073400   5.09067240
  898.63885000
  245.93257000
   87.53194700
   34.17113900
   22.51564700
    7.85224040
    3.02783270
    0.97322300
   0.03538890   0.01921420   0.00758650
   0.22259340   0.12085580   0.04771880
   0.53061440   0.28809390   0.11375120
   0.38144230   0.20710180   0.08177220
   0.02070560  -0.52081350  -0.26062270
   0.02737960  -0.68868470  -0.34462790
  -0.00364360  -0.03351630   0.60048030
  -0.00378870  -0.03485110   0.62439410
    5    1
  20.27455200
  179.98265000
   57.12756900
   21.99179700
    8.81386400
    3.35390700
   0.03286750
   0.18719520
   0.43487220
   0.46538600
   0.17851610
Spectral Representation Operator
End of Spectral Representation Operator

/Ra.MCP-QZP.Anjima.10s12p3d3f.3s4p2d1f.ECP.10el.
H. Anjima, S. Tsukamoto, H. Mori, H. Mine, M. Klobukowski, E. Miyoshi. J. Comput. Chem. 28 (2007) 2424-2430. doi:10.1002/jcc.20612
RADIUM (10s,12p,3d,3f) -> [3s,4p,2d,1f]
*******************************************************************************
* Element : Ra
* Basis : MCP segmented  (991/8211/21/3)
* Effective Charge : 10.0
* Term : 1S   Valence configuration : 1s(2)2p(6)2s(2)
* SCF energy : -23.99938048 a.u.
* Valence Correlation energy : -0.0200879 a.u.
* References
* Authors : H. Anjima, S. Tsukamoto, H. Mori, H. Mine, M. Klobukowski, E. Miyoshi,   [inner and valence shell]
* Journal : J. Comput. Chem. 28, 2424-2430 (2007)
* Authors : T. Noro, M. Sekiya, Y. Osanai, E. Miyoshi, T. Koga,   [valence correlated set]
* Journal : J. Chem. Phys. 119, 5142 (2003)
*******************************************************************************
    10.0   3
* s-type functions
   10    3
       6899.41620000
        194.76307000
         44.15176400
          8.71530980
          2.17269960
          0.87947920
          0.41408700
          0.17583380
          0.03919890
          0.01628440
  -0.01671050   0.00504650   0.00000000
   0.10726710  -0.03239390   0.00000000
  -0.31716400   0.09597350   0.00000000
   0.74538360  -0.22938120   0.00000000
  -1.14147200   0.38040260   0.00000000
  -0.20236150   0.08798710   0.00000000
   1.10689610  -0.59453260   0.00000000
   0.32143320  -0.20678600   0.00000000
   0.00536530   0.93241600   0.00000000
   0.00000000   0.00000000   1.00000000
* p-type functions
   12    4
        704.93072000
         52.27103700
         15.72124900
          6.75162370
          2.85909330
          1.16639370
          0.37361850
          0.14111420
          0.18797700
          0.06697200
          0.16494400
          0.03660800
   0.02155190   0.00000000   0.00000000   0.00000000
  -0.11100640   0.00000000   0.00000000   0.00000000
   0.15436320   0.00000000   0.00000000   0.00000000
   0.25013850   0.00000000   0.00000000   0.00000000
  -0.56849900   0.00000000   0.00000000   0.00000000
  -0.12876610   0.00000000   0.00000000   0.00000000
   0.82441640   0.00000000   0.00000000   0.00000000
   0.32756630   0.00000000   0.00000000   0.00000000
   0.00000000  -1.21389800   0.00000000   0.00000000
   0.00000000   0.33011300   0.00000000   0.00000000
   0.00000000   0.00000000   1.00000000   0.00000000
   0.00000000   0.00000000   0.00000000   1.00000000
* d-type functions
    3    2
          1.17777600
          0.36541000
          0.07655900
  -0.88984700   0.00000000
   1.18435100   0.00000000
   0.00000000   1.00000000
* f-type functions
    3    1
          0.27317200
          0.10334900
          0.03592400
  -0.13269300
   1.00927900
   0.10565100
M1
  3
 193.35201000  18.18627100   3.02334860
   4.02918220   1.65053610   0.92064280
M2
  3
  82.050761e2  16.50984600   1.49945680
  11.223798e2  14.70524000   0.79488100
COREREP
 1.0
PROJOP
    3
   16    5
  77.208914e2  14.320702e2 360.98166000  91.73761600  20.07940000
   76.611789e4
55949.92600000
 8051.95760000
 1671.97920000
 3539.41890000
  344.11427000
  145.26059000
  250.65977000
   40.89281100
   16.61568200
   10.19603500
    4.24125180
    2.17269960
    0.87947920
    0.41408700
    0.17583380
   0.02076060   0.00875360   0.00425640   0.00229940   0.00113180
   0.10731150   0.04524750   0.02200150   0.01188550   0.00585050
   0.38756030   0.16341320   0.07945950   0.04292490   0.02112920
   0.61478260   0.25922060   0.12604570   0.06809130   0.03351700
  -0.00478020   0.05250170   0.03081170   0.00972930   0.00301850
   0.04017920  -0.44129300  -0.25898150  -0.08177750  -0.02537110
   0.06031050  -0.66239720  -0.38874080  -0.12275110  -0.03808300
   0.01092390   0.01226350  -0.28714450  -0.32616720  -0.19547910
  -0.04009390  -0.04501060   1.05390380   1.19712850   0.71746510
  -0.01035420  -0.01162390   0.27216840   0.30915590   0.18528380
   0.00000000   0.01281150  -0.02567030  -1.35528900  -1.40408970
   0.00000000   0.00288190  -0.00577440  -0.30486540  -0.31584290
   0.00000000   0.00000000   0.00448330   0.01735140   1.36088810
   0.00000000   0.00000000   0.00075580   0.00292530   0.22943110
   0.00000000   0.00000000   0.00000000  -0.00287000  -0.00494180
   0.00000000   0.00000000   0.00000000  -0.00092510  -0.00159290
   10    4
  12.132956e2 298.48648000  70.89262600  13.63065700
10066.47900000
 1918.58700000
  549.26537000
  187.06880000
   86.49998600
   34.54681200
   15.72124900
    6.75162370
    2.85909330
    1.16639370
   0.02221480   0.01265210   0.00663430   0.00306310
   0.14991980   0.08538460   0.04477240   0.02067190
   0.46515750   0.26492360   0.13891560   0.06413870
   0.49094030   0.27960770   0.14661550   0.06769380
   0.03284950  -0.49603800  -0.40023310  -0.20470310
   0.04359060  -0.65823130  -0.53110040  -0.27163640
  -0.01031340  -0.03730550   0.67874600   0.51926270
  -0.00943130  -0.03411490   0.62069560   0.47485230
   0.00000000   0.01029530   0.01697250  -0.83063560
   0.00000000   0.00608270   0.01002780  -0.49076290
    8    3
 237.31104000  47.51047000   6.00096520
  927.36595000
  253.65993000
   90.29412800
   35.27567600
   23.35012700
    8.18562850
    3.23261770
    1.06049040
   0.03517920   0.01922170   0.00778510
   0.22166280   0.12111500   0.04905330
   0.53002210   0.28960040   0.11729230
   0.38239860   0.20894000   0.08462370
   0.02088590  -0.51885530  -0.26805840
   0.02777120  -0.68990200  -0.35642690
  -0.00360360  -0.03387760   0.60146560
  -0.00375090  -0.03526210   0.62604760
    5    1
  22.44349000
  188.36163000
   59.88902400
   23.11762100
    9.30829950
    3.56978360
   0.03212080
   0.18455700
   0.43310050
   0.46688590
   0.17890120
Spectral Representation Operator
End of Spectral Representation Operator
