************************************************************************
* This file is part of OpenMolcas.                                     *
*                                                                      *
* OpenMolcas is free software; you can redistribute it and/or modify   *
* it under the terms of the GNU Lesser General Public License, v. 2.1. *
* OpenMolcas is distributed in the hope that it will be useful, but it *
* is provided "as is" and without any express or implied warranties.   *
* For more details see the full text of the license in the file        *
* LICENSE or in <http://www.gnu.org/licenses/>.                        *
************************************************************************
* Uncontracted muonic Gaussian primitives for H...Ar, Cu.
* Exponents optimized with respect to average CI energy in RASSCF calculation.
* FINIte nuclei is used.
/H.muonic.Ugandi.18s14p11d.18s14p11d.
Exponents: Uppsala University 2017.
Coefficients: uncontracted.
Options
*FockOperator
EndOptions
   1.0   2
* s-type functions 
   18   18
   24010078.6646
   5543389.78584
   1415099.05842
   397544.926517
   122329.695741
   41037.627103
   14938.1084975
   5872.59917269
   2481.67467886
   1122.01183378
   540.189926964
   275.645140284
   148.377268349
   83.8602076697
   49.530690772
   30.4285378032
   19.3523802042
   12.682143291
* p-type functions 
   14   14
   157691.032088
   52200.6833242
   18698.344881
   7218.21877511
   2990.87956194
   1324.80491399
   624.785826339
   312.448721669
   165.020079715
   91.6742576571
   53.3522441827
   32.3962524899
   20.4416412841
   13.3492776928
* d-type functions 
   11   11
   13235.3527479
   4754.10015871
   1892.82826414
   826.992004285
   392.532623215
   200.387988013
   108.924664184
   62.4132109032
   37.3215530616
   23.0575367747
   14.5704601359
/He.muonic.Ugandi.18s14p11d.18s14p11d.
Exponents: Uppsala University 2017.
Coefficients: uncontracted.
Options
*FockOperator
EndOptions
   2.0   2
* s-type functions 
   18   18
   112283788.468
   25894978.2898
   6605820.18118
   1855178.29304
   570856.93207
   191551.97352
   69758.7543482
   27440.9123008
   11604.3581834
   5250.50968283
   2529.73231735
   1291.74101376
   695.727407045
   393.36939341
   232.377898163
   142.743676929
   90.7448015162
   59.4188789636
* p-type functions 
   14   14
   841601.646368
   247595.274806
   81796.8682953
   30065.1704731
   12181.4070751
   5390.29030592
   2580.96365968
   1324.89292232
   722.408668315
   414.53625217
   248.023942142
   153.302888636
   96.9855057577
   62.2210330871
* d-type functions 
   11   11
   62054.9116894
   22339.8083767
   8904.85554173
   3891.78995993
   1846.62161355
   941.983657368
   511.536563126
   292.82542345
   174.972819833
   108.066986333
   68.3135815473
/Li.muonic.Ugandi.18s14p11d.18s14p11d.
Exponents: Uppsala University 2017.
Coefficients: uncontracted.
Options
*FockOperator
EndOptions
   3.0   2
* s-type functions 
   18   18
   367474627.067
   71397432.3522
   16320725.4992
   4330875.17611
   1316342.55465
   452164.98998
   173195.82154
   72990.7895827
   33393.8580054
   16364.8007638
   8475.75020284
   4577.69216181
   2543.86310865
   1435.15007018
   811.026474039
   452.985800895
   246.730988903
   129.30939233
* p-type functions 
   14   14
   1927340.74346
   567889.718232
   187858.656921
   69125.7457429
   28032.9989455
   12413.6675863
   5947.18143178
   3054.09466579
   1665.68830676
   955.926762879
   571.945767854
   353.479419148
   223.579598388
   143.396540248
* d-type functions 
   11   11
   145759.997516
   49706.496608
   19251.5868397
   8342.01357781
   3983.81019937
   2065.48563318
   1145.28590528
   669.031024037
   405.594080057
   251.375167292
   156.895669967
/Be.muonic.Ugandi.18s14p11d.18s14p11d.
Exponents: Uppsala University 2017.
Coefficients: uncontracted.
Options
*FockOperator
EndOptions
   4.0   2
* s-type functions 
   18   18
   656835620.844
   127679231.353
   29196783.4013
   7749697.45498
   2355880.65222
   809327.739052
   310014.476649
   130650.097208
   59771.1373252
   29289.4439932
   15168.8398521
   8192.17161323
   4552.34281253
   2568.28919283
   1451.4756116
   810.804631369
   441.720101358
   231.572175599
* p-type functions 
   14   14
   3453986.42785
   1004156.79001
   329407.865057
   120715.862396
   48925.9277606
   21712.2364049
   10444.9705185
   5392.54102439
   2958.07844025
   1706.87734102
   1025.69384209
   635.480751861
   401.885817402
   256.841380761
* d-type functions 
   11   11
   261207.70213
   89062.2426592
   34490.7691231
   14944.5357235
   7136.75790578
   3700.21690719
   2051.77519511
   1198.60871996
   726.672707032
   450.38375302
   281.110925619
/B.muonic.Ugandi.18s14p11d.18s14p11d.
Exponents: Uppsala University 2017.
Coefficients: uncontracted.
Options
*FockOperator
EndOptions
   5.0   2
* s-type functions 
   18   18
   1032052484.97
   200461238.786
   45813220.5405
   12155094.6485
   3694097.04243
   1268866.73134
   486022.97555
   204835.860562
   93721.4299324
   45933.6406966
   23793.4381542
   12852.6662087
   7143.55300936
   4030.84087693
   2278.30938269
   1272.74303344
   693.354065789
   363.438587373
* p-type functions 
   14   14
   5434618.78803
   1600157.94855
   529009.034445
   194556.741505
   78865.8391342
   34911.419968
   16720.8568591
   8584.96375685
   4681.48692656
   2686.40239674
   1607.22511652
   993.292688205
   628.274076771
   402.966466779
* d-type functions 
   11   11
   409664.976435
   139683.59526
   54097.526343
   23441.7181284
   11195.5671191
   5805.130381
   3219.22755497
   1880.74444721
   1140.27843181
   706.739942614
   441.10356273
/C.muonic.Ugandi.18s14p11d.18s14p11d.
Exponents: Uppsala University 2017.
Coefficients: uncontracted.
Options
*FockOperator
EndOptions
   6.0   2
* s-type functions 
   18   18
   1047740426.36
   241634343.043
   61641221.5295
   17311219.5861
   5326772.88588
   1787380.50253
   650912.192518
   256045.168867
   108276.893737
   48990.9936126
   23604.4670167
   12053.297475
   6492.13453811
   3670.92356049
   2168.73056091
   1332.33832229
   847.107128724
   554.770403522
* p-type functions 
   14   14
   7833638.90849
   2307163.92981
   762894.786666
   280610.293211
   113756.644239
   50357.6712323
   24118.5760155
   12382.7274564
   6752.13410121
   3874.42595047
   2317.91069423
   1432.48647212
   906.087883034
   581.189215088
* d-type functions 
   11   11
   591380.434913
   201624.752923
   78077.6561144
   33828.6594622
   16154.2570488
   8375.34004151
   4644.08590751
   2712.99789227
   1644.82296711
   1019.47936258
   636.350465841
/N.muonic.Ugandi.18s14p11d.18s14p11d.
Exponents: Uppsala University 2017.
Coefficients: uncontracted.
Options
*FockOperator
EndOptions
   7.0   2
* s-type functions 
   18   18
   1420071637.25
   306011624.904
   74451135.9231
   20305321.9799
   6163863.29866
   2067759.85432
   761115.558626
   305213.625173
   132391.30664
   61676.0668521
   30639.0249549
   16115.1256105
   8910.30051192
   5142.21613464
   3075.43843597
   1892.61336061
   1189.91060522
   758.86365927
* p-type functions 
   14   14
   10673114.2638
   3174903.73022
   1056454.24324
   389827.902203
   158131.582823
   69905.1469984
   33386.1158793
   17076.9464793
   9273.92300131
   5300.86899953
   3161.42107995
   1950.25174456
   1233.65417349
   793.253480652
* d-type functions 
   11   11
   806461.292246
   275003.014938
   106508.546372
   46152.452568
   22041.3751739
   11428.4258427
   6337.35765882
   3702.32335978
   2244.68318246
   1391.29935838
   868.442749654
/O.muonic.Ugandi.18s14p11d.18s14p11d.
Exponents: Uppsala University 2017.
Coefficients: uncontracted.
Options
*FockOperator
EndOptions
   8.0   2
* s-type functions 
   18   18
   1872519206.44
   431823346.394
   110152996.697
   30933768.9291
   9518130.22625
   3193660.11909
   1163000.64914
   457468.706323
   193450.100182
   87526.3107649
   42170.2665791
   21533.1760207
   11597.9122333
   6557.78978567
   3874.15571029
   2379.98666171
   1513.16332584
   990.938918632
* p-type functions 
   14   14
   13985534.6806
   4118564.36103
   1361805.52561
   500913.482704
   203078.846293
   89907.709234
   43066.0855022
   22113.4257466
   12059.6516153
   6920.66048246
   4140.66710007
   2559.05146042
   1618.63749715
   1038.1449386
* d-type functions 
   11   11
   1055194.17461
   359830.382615
   139366.472836
   60392.5100138
   28843.0647289
   14955.5553023
   8293.46003002
   4845.1843255
   2937.61885127
   1820.79245504
   1136.51339808
/F.muonic.Ugandi.18s14p11d.18s14p11d.
Exponents: Uppsala University 2017.
Coefficients: uncontracted.
Options
*FockOperator
EndOptions
   9.0   2
* s-type functions 
   18   18
   2375805103.73
   547955765.568
   139788675.866
   39258020.254
   12079607.557
   4053063.38399
   1475904.37186
   580517.624443
   245466.979963
   111052.756404
   53501.0507946
   27316.8174842
   14711.9697364
   8318.07038469
   4913.86836643
   3018.64275161
   1919.22240311
   1256.9048145
* p-type functions 
   14   14
   17755210.7964
   5181404.62984
   1703586.43233
   624918.642334
   253263.782718
   112295.06086
   53942.8432926
   27799.7111456
   15220.4558316
   8766.85084752
   5260.60648492
   3256.50620479
   2059.39453695
   1317.48722106
* d-type functions 
   11   11
   1339542.46907
   456613.623742
   176804.732714
   76603.8806873
   36582.9515634
   18968.6760683
   10519.2512126
   6145.84189268
   3726.36945848
   2309.71094821
   1441.63649727
/Ne.muonic.Ugandi.18s14p11d.18s14p11d.
Exponents: Uppsala University 2017.
Coefficients: uncontracted.
Options
*FockOperator
EndOptions
   10.0   2
* s-type functions 
   18   18
   2933227445.38
   676585169.52
   172618415.024
   48481707.3514
   14918770.4354
   5005998.4997
   1823010.5051
   717078.355259
   303222.382823
   137186.48001
   66092.9288459
   33746.6388937
   18175.0706186
   10276.1387477
   6070.58152314
   3729.19703048
   2370.95480412
   1552.71713857
* p-type functions 
   14   14
   21884870.4367
   6446312.25536
   2131912.04072
   784322.241157
   318026.860762
   140816.588012
   67459.2167362
   34641.9996688
   18893.6346539
   10843.1556879
   6487.84123413
   4009.82844909
   2536.34980842
   1626.77318769
* d-type functions 
   11   11
   1653954.43824
   563887.994812
   218369.004942
   94619.6466304
   45188.4212668
   23431.0567772
   12993.8780007
   7591.56359424
   4602.91087041
   2853.02855247
   1780.80035057
/Na.muonic.Ugandi.18s14p11d.18s14p11d.
Exponents: Uppsala University 2017.
Coefficients: uncontracted.
Options
*FockOperator
EndOptions
   11.0   2
* s-type functions 
   18   18
   3554087728.53
   819746553.944
   209133712.204
   58735318.1616
   18073542.2594
   6064482.5109
   2208455.10182
   868691.555903
   367335.301133
   166194.870349
   80069.7159536
   40883.9196815
   22019.536467
   12450.1065287
   7355.04024235
   4518.37187228
   2872.77533753
   1881.40360471
* p-type functions 
   14   14
   26539933.4965
   7837400.42681
   2595952.63858
   955693.472205
   387509.366463
   171487.363101
   82075.3942655
   42098.7667331
   22932.2101904
   13145.8054857
   7858.46714025
   4854.47687186
   3070.75798525
   1971.02396967
* d-type functions 
   11   11
   2003552.90352
   683181.976427
   264599.392394
   114662.574726
   54764.4196596
   28397.6754759
   15748.4619025
   9200.85306725
   5578.48402536
   3457.53024683
   2157.94825532
/Mg.muonic.Ugandi.18s14p11d.18s14p11d.
Exponents: Uppsala University 2017.
Coefficients: uncontracted.
Options
*FockOperator
EndOptions
   12.0   2
* s-type functions 
   18   18
   4231524195.74
   975976781.747
   248989557.1
   69929216.1027
   21518349.6004
   7220527.42077
   2629513.70668
   1034344.95985
   437396.903121
   197898.833411
   95346.5284074
   48685.2660447
   26221.5351241
   14825.9822
   8758.51587161
   5380.41959677
   3420.71773549
   2240.11695576
* p-type functions 
   14   14
   31451791.0017
   9476185.74866
   3179098.46516
   1178086.67961
   478381.068834
   211161.53897
   100512.567788
   51181.293152
   27657.1929562
   15733.7238882
   9347.64370236
   5753.61235957
   3639.71594042
   2347.48836187
* d-type functions 
   11   11
   2386047.50287
   813520.609762
   315053.830146
   136518.09412
   65199.9762806
   33807.9584833
   18748.5317188
   10953.5502119
   6641.16683424
   4116.21681093
   2569.08798238
/Al.muonic.Ugandi.18s14p11d.18s14p11d.
Exponents: Uppsala University 2017.
Coefficients: uncontracted.
Options
*FockOperator
EndOptions
   13.0   2
* s-type functions 
   18   18
   4969308520.88
   1146104078.4
   292387619.948
   82117676.8281
   25269288.1463
   8479377.4383
   3088058.0801
   1214768.19542
   513716.781592
   232440.824642
   111994.141076
   57188.4554832
   30802.6107008
   17416.8138049
   10289.3476337
   6320.92807202
   4018.68216812
   2631.67467866
* p-type functions 
   14   14
   37074594.9004
   10991577.3146
   3649822.08276
   1345396.23541
   545675.339733
   241358.623373
   115391.668604
   59102.7916885
   32144.1697126
   18399.0700535
   10985.700235
   6781.66907906
   4290.03849691
   2756.38766698
* d-type functions 
   11   11
   2777942.06423
   975949.860854
   383865.337307
   167009.918605
   79411.3381762
   40772.2384203
   22333.3202582
   12894.7711107
   7753.72678796
   4797.43136841
   3017.68131796
/Si.muonic.Ugandi.18s14p11d.18s14p11d.
Exponents: Uppsala University 2017.
Coefficients: uncontracted.
Options
*FockOperator
EndOptions
   14.0   2
* s-type functions 
   18   18
   5763164963.99
   1329386181.76
   339184355.476
   95269108.2119
   29318187.2035
   9838478.59892
   3583122.75127
   1409533.58762
   596082.352597
   269706.419929
   129947.395692
   66354.7845898
   35738.9975256
   20207.61412
   11937.8840468
   7333.58629099
   4662.50469824
   3053.3252956
* p-type functions 
   14   14
   43096098.0546
   12689187.8209
   4195212.83032
   1543019.75166
   625546.076096
   276943.050702
   132659.392944
   68120.0444077
   37151.3191803
   21321.0689097
   12757.1053689
   7884.54730394
   4987.18928983
   3198.61837129
* d-type functions 
   11   11
   3252836.14224
   1108895.02001
   429404.910072
   186059.050612
   88858.8546855
   46076.091586
   25552.5625538
   14929.1845891
   9051.89297989
   5610.52269438
   3501.76276772
/P.muonic.Ugandi.18s14p11d.18s14p11d.
Exponents: Uppsala University 2017.
Coefficients: uncontracted.
Options
*FockOperator
EndOptions
   15.0   2
* s-type functions 
   18   18
   6626007969.54
   1528278557.8
   389897239.449
   109504500.806
   33696519.3115
   11306976.0856
   4117687.24565
   1619730.6032
   684938.944394
   309897.211602
   149306.016186
   76237.3640708
   41060.7101357
   23216.1475092
   13715.0078863
   8425.22042967
   5356.52184677
   3507.82550358
* p-type functions 
   14   14
   49468914.0641
   14569982.9806
   4818125.28468
   1772419.53318
   718623.440639
   318170.317835
   152411.73018
   78262.6576542
   42682.0504811
   24494.4369994
   14655.416639
   9057.62667537
   5729.18994397
   3674.61294606
* d-type functions 
   11   11
   3737025.48233
   1273960.69119
   493326.167007
   213756.407945
   102086.828404
   52935.2013409
   29356.3750278
   17151.495605
   10399.2492611
   6445.56679298
   4022.88930997
/S.muonic.Ugandi.18s14p11d.18s14p11d.
Exponents: Uppsala University 2017.
Coefficients: uncontracted.
Options
*FockOperator
EndOptions
   16.0   2
* s-type functions 
   18   18
   7537300977.72
   1738489274.01
   443532742.769
   124570137.169
   38333092.6083
   12863007.0112
   4684432.22467
   1842698.54136
   779240.607266
   352570.42993
   169869.063522
   86738.8922195
   46717.7259351
   26415.2567128
   15605.2369611
   9586.61670954
   6095.04473184
   3991.5542957
* p-type functions 
   14   14
   56309095.8156
   16580473.826
   5482049.63291
   2016455.42502
   817534.183861
   361965.220198
   173397.7216
   89044.5917777
   48565.8863894
   27873.1915004
   16678.065658
   10308.1387689
   6520.22263493
   4181.8088771
* d-type functions 
   11   11
   4251200.98489
   1449489.20512
   561362.980613
   243254.283153
   116179.009829
   60243.1677004
   33408.9932766
   19518.972156
   11834.5288328
   7335.13274345
   4578.15473603
/Cl.muonic.Ugandi.18s14p11d.18s14p11d.
Exponents: Uppsala University 2017.
Coefficients: uncontracted.
Options
*FockOperator
EndOptions
   17.0   2
* s-type functions 
   18   18
   8516229802.92
   1964028105.14
   501024604.974
   140707436.795
   43296949.8121
   14528320.6754
   5290868.99613
   2081266.46819
   880142.64772
   398234.383763
   191875.8718
   97979.1148455
   52773.2454088
   29839.8648194
   17628.6180653
   10829.6311787
   6885.23322576
   4508.88178464
* p-type functions 
   14   14
   63584514.5713
   18726820.7671
   6192605.25342
   2278011.98878
   923609.722361
   408928.599171
   195888.792252
   100589.216119
   54859.2172515
   31483.3366859
   18837.4226297
   11642.5579008
   7364.41315089
   4723.53690967
* d-type functions 
   11   11
   4804163.13425
   1637717.21815
   634191.742835
   274800.672324
   131245.849478
   68057.9690454
   37744.4456499
   22052.7532062
   13370.982577
   8287.23412126
   5171.97852806
/Ar.muonic.Ugandi.18s14p11d.18s14p11d.
Exponents: Uppsala University 2017.
Coefficients: uncontracted.
Options
*FockOperator
EndOptions
   18.0   2
* s-type functions 
   18   18
   9554242708.75
   2203599728.59
   562176667.275
   157889368.777
   48585785.1936
   16303397.9046
   5937394.35972
   2335601.94246
   987695.839919
   446894.886918
   215318.631647
   109948.219469
   59219.0524393
   33484.026037
   19781.223569
   12151.900228
   7725.864766
   5059.39015917
* p-type functions 
   14   14
   71345756.0422
   21011512.7835
   6947895.76506
   2555824.16529
   1036251.72077
   458808.106009
   219787.67472
   112864.388004
   61555.4884752
   35327.0845084
   21137.5616132
   13064.2041906
   8263.5550888
   5300.07111879
* d-type functions 
   11   11
   5311193.97781
   1888383.89456
   747610.006167
   325977.080258
   154834.101221
   79241.7778571
   43220.5505588
   24849.3663588
   14896.0023745
   9208.60799667
   5806.68847702
/Cu.muonic.Ugandi.18s14p11d.18s14p11d.
Exponents: Uppsala University 2017.
Coefficients: uncontracted.
Options
*FockOperator
EndOptions
   29.0   2
* s-type functions 
   18   18
   24860330362.0
   5734137178.43
   1462923514.22
   410870751.082
   126431880.786
   42424178.5668
   15449465.5636
   6077071.66863
   2569767.53635
   1162651.63161
   560143.580411
   286009.734779
   154039.345946
   87094.277144
   51450.8291964
   31606.5903746
   20094.7742556
   13159.7165036
* p-type functions 
   14   14
   185735121.463
   54691951.7299
   18082828.103
   6651158.42221
   2696439.6159
   1193771.03279
   571824.50948
   293623.188401
   160132.045373
   91896.9145466
   54983.5592807
   33981.9637373
   21494.2481737
   13785.6952107
* d-type functions 
   11   11
   14014129.6277
   4778276.57361
   1850560.08792
   801906.879117
   382997.212711
   198600.483005
   110138.735565
   64348.296957
   39015.1516839
   24181.9266558
   15092.8738892
