************************************************************************
* This file is part of OpenMolcas.                                     *
*                                                                      *
* OpenMolcas is free software; you can redistribute it and/or modify   *
* it under the terms of the GNU Lesser General Public License, v. 2.1. *
* OpenMolcas is distributed in the hope that it will be useful, but it *
* is provided "as is" and without any express or implied warranties.   *
* For more details see the full text of the license in the file        *
* LICENSE or in <http://www.gnu.org/licenses/>.                        *
************************************************************************

#Hamiltonian NRH
#Nucleus GN_
#Contraction UNC
#AllElectron AE_

************************************************************************
* Uncontracted muonic Gaussian primitives for H...Ar, Cu.              *
* Exponents optimized with respect to average CI energy in RASSCF.     *
************************************************************************

/H.muonic.Ugandi.18s14p11d.18s14p11d.
M. Ugandi, I. Fdez. Galvan, P.‐O. Widmark, R. Lindh. Int. J. Quantum Chemistry 118 (2018) e25755. doi:10.1002/qua.25755
HYDROGEN (18s,14p,11d)
     1.0   2
* s-type functions
   18   18
    2.401007866460e7
    5.543389785840e6
    1.415099058420e6
    3.975449265170e5
    1.223296957410e5
41037.62710300000000
14938.10849750000000
 5872.59917269000000
 2481.67467886000000
 1122.01183378000000
  540.18992696400000
  275.64514028400000
  148.37726834900000
   83.86020766970000
   49.53069077200000
   30.42853780320000
   19.35238020420000
   12.68214329100000
* p-type functions
   14   14
    1.576910320880e5
52200.68332420000000
18698.34488100000000
 7218.21877511000000
 2990.87956194000000
 1324.80491399000000
  624.78582633900000
  312.44872166900000
  165.02007971500000
   91.67425765710000
   53.35224418270000
   32.39625248990000
   20.44164128410000
   13.34927769280000
* d-type functions
   11   11
13235.35274790000000
 4754.10015871000000
 1892.82826414000000
  826.99200428500000
  392.53262321500000
  200.38798801300000
  108.92466418400000
   62.41321090320000
   37.32155306160000
   23.05753677470000
   14.57046013590000

/He.muonic.Ugandi.18s14p11d.18s14p11d.
M. Ugandi, I. Fdez. Galvan, P.‐O. Widmark, R. Lindh. Int. J. Quantum Chemistry 118 (2018) e25755. doi:10.1002/qua.25755
HELIUM (18s,14p,11d)
     2.0   2
* s-type functions
   18   18
    1.122837884680e8
    2.589497828980e7
    6.605820181180e6
    1.855178293040e6
    5.708569320700e5
    1.915519735200e5
69758.75434820000000
27440.91230080000000
11604.35818340000000
 5250.50968283000000
 2529.73231735000000
 1291.74101376000000
  695.72740704500000
  393.36939341000000
  232.37789816300000
  142.74367692900000
   90.74480151620000
   59.41887896360000
* p-type functions
   14   14
    8.416016463680e5
    2.475952748060e5
81796.86829530000000
30065.17047310000000
12181.40707510000000
 5390.29030592000000
 2580.96365968000000
 1324.89292232000000
  722.40866831500000
  414.53625217000000
  248.02394214200000
  153.30288863600000
   96.98550575770000
   62.22103308710000
* d-type functions
   11   11
62054.91168940000000
22339.80837670000000
 8904.85554173000000
 3891.78995993000000
 1846.62161355000000
  941.98365736800000
  511.53656312600000
  292.82542345000000
  174.97281983300000
  108.06698633300000
   68.31358154730000

/Li.muonic.Ugandi.18s14p11d.18s14p11d.
M. Ugandi, I. Fdez. Galvan, P.‐O. Widmark, R. Lindh. Int. J. Quantum Chemistry 118 (2018) e25755. doi:10.1002/qua.25755
LITHIUM (18s,14p,11d)
     3.0   2
* s-type functions
   18   18
    3.674746270670e8
    7.139743235220e7
    1.632072549920e7
    4.330875176110e6
    1.316342554650e6
    4.521649899800e5
    1.731958215400e5
72990.78958270000000
33393.85800540000000
16364.80076380000000
 8475.75020284000000
 4577.69216181000000
 2543.86310865000000
 1435.15007018000000
  811.02647403900000
  452.98580089500000
  246.73098890300000
  129.30939233000000
* p-type functions
   14   14
    1.927340743460e6
    5.678897182320e5
    1.878586569210e5
69125.74574290000000
28032.99894550000000
12413.66758630000000
 5947.18143178000000
 3054.09466579000000
 1665.68830676000000
  955.92676287900000
  571.94576785400000
  353.47941914800000
  223.57959838800000
  143.39654024800000
* d-type functions
   11   11
    1.457599975160e5
49706.49660800000000
19251.58683970000000
 8342.01357781000000
 3983.81019937000000
 2065.48563318000000
 1145.28590528000000
  669.03102403700000
  405.59408005700000
  251.37516729200000
  156.89566996700000

/Be.muonic.Ugandi.18s14p11d.18s14p11d.
M. Ugandi, I. Fdez. Galvan, P.‐O. Widmark, R. Lindh. Int. J. Quantum Chemistry 118 (2018) e25755. doi:10.1002/qua.25755
BERYLLIUM (18s,14p,11d)
     4.0   2
* s-type functions
   18   18
    6.568356208440e8
    1.276792313530e8
    2.919678340130e7
    7.749697454980e6
    2.355880652220e6
    8.093277390520e5
    3.100144766490e5
    1.306500972080e5
59771.13732520000000
29289.44399320000000
15168.83985210000000
 8192.17161323000000
 4552.34281253000000
 2568.28919283000000
 1451.47561160000000
  810.80463136900000
  441.72010135800000
  231.57217559900000
* p-type functions
   14   14
    3.453986427850e6
    1.004156790010e6
    3.294078650570e5
    1.207158623960e5
48925.92776060000000
21712.23640490000000
10444.97051850000000
 5392.54102439000000
 2958.07844025000000
 1706.87734102000000
 1025.69384209000000
  635.48075186100000
  401.88581740200000
  256.84138076100000
* d-type functions
   11   11
    2.612077021300e5
89062.24265920000000
34490.76912310000000
14944.53572350000000
 7136.75790578000000
 3700.21690719000000
 2051.77519511000000
 1198.60871996000000
  726.67270703200000
  450.38375302000000
  281.11092561900000

/B.muonic.Ugandi.18s14p11d.18s14p11d.
M. Ugandi, I. Fdez. Galvan, P.‐O. Widmark, R. Lindh. Int. J. Quantum Chemistry 118 (2018) e25755. doi:10.1002/qua.25755
BORON (18s,14p,11d)
     5.0   2
* s-type functions
   18   18
    1.032052484970e9
    2.004612387860e8
    4.581322054050e7
    1.215509464850e7
    3.694097042430e6
    1.268866731340e6
    4.860229755500e5
    2.048358605620e5
93721.42993240000000
45933.64069660000000
23793.43815420000000
12852.66620870000000
 7143.55300936000000
 4030.84087693000000
 2278.30938269000000
 1272.74303344000000
  693.35406578900000
  363.43858737300000
* p-type functions
   14   14
    5.434618788030e6
    1.600157948550e6
    5.290090344450e5
    1.945567415050e5
78865.83913420000000
34911.41996800000000
16720.85685910000000
 8584.96375685000000
 4681.48692656000000
 2686.40239674000000
 1607.22511652000000
  993.29268820500000
  628.27407677100000
  402.96646677900000
* d-type functions
   11   11
    4.096649764350e5
    1.396835952600e5
54097.52634300000000
23441.71812840000000
11195.56711910000000
 5805.13038100000000
 3219.22755497000000
 1880.74444721000000
 1140.27843181000000
  706.73994261400000
  441.10356273000000

/C.muonic.Ugandi.18s14p11d.18s14p11d.
M. Ugandi, I. Fdez. Galvan, P.‐O. Widmark, R. Lindh. Int. J. Quantum Chemistry 118 (2018) e25755. doi:10.1002/qua.25755
CARBON (18s,14p,11d)
     6.0   2
* s-type functions
   18   18
    1.047740426360e9
    2.416343430430e8
    6.164122152950e7
    1.731121958610e7
    5.326772885880e6
    1.787380502530e6
    6.509121925180e5
    2.560451688670e5
    1.082768937370e5
48990.99361260000000
23604.46701670000000
12053.29747500000000
 6492.13453811000000
 3670.92356049000000
 2168.73056091000000
 1332.33832229000000
  847.10712872400000
  554.77040352200000
* p-type functions
   14   14
    7.833638908490e6
    2.307163929810e6
    7.628947866660e5
    2.806102932110e5
    1.137566442390e5
50357.67123230000000
24118.57601550000000
12382.72745640000000
 6752.13410121000000
 3874.42595047000000
 2317.91069423000000
 1432.48647212000000
  906.08788303400000
  581.18921508800000
* d-type functions
   11   11
    5.913804349130e5
    2.016247529230e5
78077.65611440000000
33828.65946220000000
16154.25704880000000
 8375.34004151000000
 4644.08590751000000
 2712.99789227000000
 1644.82296711000000
 1019.47936258000000
  636.35046584100000

/N.muonic.Ugandi.18s14p11d.18s14p11d.
M. Ugandi, I. Fdez. Galvan, P.‐O. Widmark, R. Lindh. Int. J. Quantum Chemistry 118 (2018) e25755. doi:10.1002/qua.25755
NITROGEN (18s,14p,11d)
     7.0   2
* s-type functions
   18   18
    1.420071637250e9
    3.060116249040e8
    7.445113592310e7
    2.030532197990e7
    6.163863298660e6
    2.067759854320e6
    7.611155586260e5
    3.052136251730e5
    1.323913066400e5
61676.06685210000000
30639.02495490000000
16115.12561050000000
 8910.30051192000000
 5142.21613464000000
 3075.43843597000000
 1892.61336061000000
 1189.91060522000000
  758.86365927000000
* p-type functions
   14   14
    1.067311426380e7
    3.174903730220e6
    1.056454243240e6
    3.898279022030e5
    1.581315828230e5
69905.14699840000000
33386.11587930000000
17076.94647930000000
 9273.92300131000000
 5300.86899953000000
 3161.42107995000000
 1950.25174456000000
 1233.65417349000000
  793.25348065200000
* d-type functions
   11   11
    8.064612922460e5
    2.750030149380e5
    1.065085463720e5
46152.45256800000000
22041.37517390000000
11428.42584270000000
 6337.35765882000000
 3702.32335978000000
 2244.68318246000000
 1391.29935838000000
  868.44274965400000

/O.muonic.Ugandi.18s14p11d.18s14p11d.
M. Ugandi, I. Fdez. Galvan, P.‐O. Widmark, R. Lindh. Int. J. Quantum Chemistry 118 (2018) e25755. doi:10.1002/qua.25755
OXYGEN (18s,14p,11d)
     8.0   2
* s-type functions
   18   18
    1.872519206440e9
    4.318233463940e8
    1.101529966970e8
    3.093376892910e7
    9.518130226250e6
    3.193660119090e6
    1.163000649140e6
    4.574687063230e5
    1.934501001820e5
87526.31076490000000
42170.26657910000000
21533.17602070000000
11597.91223330000000
 6557.78978567000000
 3874.15571029000000
 2379.98666171000000
 1513.16332584000000
  990.93891863200000
* p-type functions
   14   14
    1.398553468060e7
    4.118564361030e6
    1.361805525610e6
    5.009134827040e5
    2.030788462930e5
89907.70923400000000
43066.08550220000000
22113.42574660000000
12059.65161530000000
 6920.66048246000000
 4140.66710007000000
 2559.05146042000000
 1618.63749715000000
 1038.14493860000000
* d-type functions
   11   11
    1.055194174610e6
    3.598303826150e5
    1.393664728360e5
60392.51001380000000
28843.06472890000000
14955.55530230000000
 8293.46003002000000
 4845.18432550000000
 2937.61885127000000
 1820.79245504000000
 1136.51339808000000

/F.muonic.Ugandi.18s14p11d.18s14p11d.
M. Ugandi, I. Fdez. Galvan, P.‐O. Widmark, R. Lindh. Int. J. Quantum Chemistry 118 (2018) e25755. doi:10.1002/qua.25755
FLUORINE (18s,14p,11d)
     9.0   2
* s-type functions
   18   18
    2.375805103730e9
    5.479557655680e8
    1.397886758660e8
    3.925802025400e7
    1.207960755700e7
    4.053063383990e6
    1.475904371860e6
    5.805176244430e5
    2.454669799630e5
    1.110527564040e5
53501.05079460000000
27316.81748420000000
14711.96973640000000
 8318.07038469000000
 4913.86836643000000
 3018.64275161000000
 1919.22240311000000
 1256.90481450000000
* p-type functions
   14   14
    1.775521079640e7
    5.181404629840e6
    1.703586432330e6
    6.249186423340e5
    2.532637827180e5
    1.122950608600e5
53942.84329260000000
27799.71114560000000
15220.45583160000000
 8766.85084752000000
 5260.60648492000000
 3256.50620479000000
 2059.39453695000000
 1317.48722106000000
* d-type functions
   11   11
    1.339542469070e6
    4.566136237420e5
    1.768047327140e5
76603.88068730000000
36582.95156340000000
18968.67606830000000
10519.25121260000000
 6145.84189268000000
 3726.36945848000000
 2309.71094821000000
 1441.63649727000000

/Ne.muonic.Ugandi.18s14p11d.18s14p11d.
M. Ugandi, I. Fdez. Galvan, P.‐O. Widmark, R. Lindh. Int. J. Quantum Chemistry 118 (2018) e25755. doi:10.1002/qua.25755
NEON (18s,14p,11d)
    10.0   2
* s-type functions
   18   18
    2.933227445380e9
    6.765851695200e8
    1.726184150240e8
    4.848170735140e7
    1.491877043540e7
    5.005998499700e6
    1.823010505100e6
    7.170783552590e5
    3.032223828230e5
    1.371864800100e5
66092.92884590000000
33746.63889370000000
18175.07061860000000
10276.13874770000000
 6070.58152314000000
 3729.19703048000000
 2370.95480412000000
 1552.71713857000000
* p-type functions
   14   14
    2.188487043670e7
    6.446312255360e6
    2.131912040720e6
    7.843222411570e5
    3.180268607620e5
    1.408165880120e5
67459.21673620000000
34641.99966880000000
18893.63465390000000
10843.15568790000000
 6487.84123413000000
 4009.82844909000000
 2536.34980842000000
 1626.77318769000000
* d-type functions
   11   11
    1.653954438240e6
    5.638879948120e5
    2.183690049420e5
94619.64663040000000
45188.42126680000000
23431.05677720000000
12993.87800070000000
 7591.56359424000000
 4602.91087041000000
 2853.02855247000000
 1780.80035057000000

/Na.muonic.Ugandi.18s14p11d.18s14p11d.
M. Ugandi, I. Fdez. Galvan, P.‐O. Widmark, R. Lindh. Int. J. Quantum Chemistry 118 (2018) e25755. doi:10.1002/qua.25755
SODIUM (18s,14p,11d)
    11.0   2
* s-type functions
   18   18
    3.554087728530e9
    8.197465539440e8
    2.091337122040e8
    5.873531816160e7
    1.807354225940e7
    6.064482510900e6
    2.208455101820e6
    8.686915559030e5
    3.673353011330e5
    1.661948703490e5
80069.71595360000000
40883.91968150000000
22019.53646700000000
12450.10652870000000
 7355.04024235000000
 4518.37187228000000
 2872.77533753000000
 1881.40360471000000
* p-type functions
   14   14
    2.653993349650e7
    7.837400426810e6
    2.595952638580e6
    9.556934722050e5
    3.875093664630e5
    1.714873631010e5
82075.39426550000000
42098.76673310000000
22932.21019040000000
13145.80548570000000
 7858.46714025000000
 4854.47687186000000
 3070.75798525000000
 1971.02396967000000
* d-type functions
   11   11
    2.003552903520e6
    6.831819764270e5
    2.645993923940e5
    1.146625747260e5
54764.41965960000000
28397.67547590000000
15748.46190250000000
 9200.85306725000000
 5578.48402536000000
 3457.53024683000000
 2157.94825532000000

/Mg.muonic.Ugandi.18s14p11d.18s14p11d.
M. Ugandi, I. Fdez. Galvan, P.‐O. Widmark, R. Lindh. Int. J. Quantum Chemistry 118 (2018) e25755. doi:10.1002/qua.25755
MAGNESIUM (18s,14p,11d)
    12.0   2
* s-type functions
   18   18
    4.231524195740e9
    9.759767817470e8
    2.489895571000e8
    6.992921610270e7
    2.151834960040e7
    7.220527420770e6
    2.629513706680e6
    1.034344959850e6
    4.373969031210e5
    1.978988334110e5
95346.52840740000000
48685.26604470000000
26221.53512410000000
14825.98220000000000
 8758.51587161000000
 5380.41959677000000
 3420.71773549000000
 2240.11695576000000
* p-type functions
   14   14
    3.145179100170e7
    9.476185748660e6
    3.179098465160e6
    1.178086679610e6
    4.783810688340e5
    2.111615389700e5
    1.005125677880e5
51181.29315200000000
27657.19295620000000
15733.72388820000000
 9347.64370236000000
 5753.61235957000000
 3639.71594042000000
 2347.48836187000000
* d-type functions
   11   11
    2.386047502870e6
    8.135206097620e5
    3.150538301460e5
    1.365180941200e5
65199.97628060000000
33807.95848330000000
18748.53171880000000
10953.55021190000000
 6641.16683424000000
 4116.21681093000000
 2569.08798238000000

/Al.muonic.Ugandi.18s14p11d.18s14p11d.
M. Ugandi, I. Fdez. Galvan, P.‐O. Widmark, R. Lindh. Int. J. Quantum Chemistry 118 (2018) e25755. doi:10.1002/qua.25755
ALUMINIUM (18s,14p,11d)
    13.0   2
* s-type functions
   18   18
    4.969308520880e9
    1.146104078400e9
    2.923876199480e8
    8.211767682810e7
    2.526928814630e7
    8.479377438300e6
    3.088058080100e6
    1.214768195420e6
    5.137167815920e5
    2.324408246420e5
    1.119941410760e5
57188.45548320000000
30802.61070080000000
17416.81380490000000
10289.34763370000000
 6320.92807202000000
 4018.68216812000000
 2631.67467866000000
* p-type functions
   14   14
    3.707459490040e7
    1.099157731460e7
    3.649822082760e6
    1.345396235410e6
    5.456753397330e5
    2.413586233730e5
    1.153916686040e5
59102.79168850000000
32144.16971260000000
18399.07005350000000
10985.70023500000000
 6781.66907906000000
 4290.03849691000000
 2756.38766698000000
* d-type functions
   11   11
    2.777942064230e6
    9.759498608540e5
    3.838653373070e5
    1.670099186050e5
79411.33817620000000
40772.23842030000000
22333.32025820000000
12894.77111070000000
 7753.72678796000000
 4797.43136841000000
 3017.68131796000000

/Si.muonic.Ugandi.18s14p11d.18s14p11d.
M. Ugandi, I. Fdez. Galvan, P.‐O. Widmark, R. Lindh. Int. J. Quantum Chemistry 118 (2018) e25755. doi:10.1002/qua.25755
SILICON (18s,14p,11d)
    14.0   2
* s-type functions
   18   18
    5.763164963990e9
    1.329386181760e9
    3.391843554760e8
    9.526910821190e7
    2.931818720350e7
    9.838478598920e6
    3.583122751270e6
    1.409533587620e6
    5.960823525970e5
    2.697064199290e5
    1.299473956920e5
66354.78458980000000
35738.99752560000000
20207.61412000000000
11937.88404680000000
 7333.58629099000000
 4662.50469824000000
 3053.32529560000000
* p-type functions
   14   14
    4.309609805460e7
    1.268918782090e7
    4.195212830320e6
    1.543019751660e6
    6.255460760960e5
    2.769430507020e5
    1.326593929440e5
68120.04440770000000
37151.31918030000000
21321.06890970000000
12757.10536890000000
 7884.54730394000000
 4987.18928983000000
 3198.61837129000000
* d-type functions
   11   11
    3.252836142240e6
    1.108895020010e6
    4.294049100720e5
    1.860590506120e5
88858.85468550000000
46076.09158600000000
25552.56255380000000
14929.18458910000000
 9051.89297989000000
 5610.52269438000000
 3501.76276772000000

/P.muonic.Ugandi.18s14p11d.18s14p11d.
M. Ugandi, I. Fdez. Galvan, P.‐O. Widmark, R. Lindh. Int. J. Quantum Chemistry 118 (2018) e25755. doi:10.1002/qua.25755
PHOSPHORUS (18s,14p,11d)
    15.0   2
* s-type functions
   18   18
    6.626007969540e9
    1.528278557800e9
    3.898972394490e8
    1.095045008060e8
    3.369651931150e7
    1.130697608560e7
    4.117687245650e6
    1.619730603200e6
    6.849389443940e5
    3.098972116020e5
    1.493060161860e5
76237.36407080000000
41060.71013570000000
23216.14750920000000
13715.00788630000000
 8425.22042967000000
 5356.52184677000000
 3507.82550358000000
* p-type functions
   14   14
    4.946891406410e7
    1.456998298060e7
    4.818125284680e6
    1.772419533180e6
    7.186234406390e5
    3.181703178350e5
    1.524117301800e5
78262.65765420000000
42682.05048110000000
24494.43699940000000
14655.41663900000000
 9057.62667537000000
 5729.18994397000000
 3674.61294606000000
* d-type functions
   11   11
    3.737025482330e6
    1.273960691190e6
    4.933261670070e5
    2.137564079450e5
    1.020868284040e5
52935.20134090000000
29356.37502780000000
17151.49560500000000
10399.24926110000000
 6445.56679298000000
 4022.88930997000000

/S.muonic.Ugandi.18s14p11d.18s14p11d.
M. Ugandi, I. Fdez. Galvan, P.‐O. Widmark, R. Lindh. Int. J. Quantum Chemistry 118 (2018) e25755. doi:10.1002/qua.25755
SULFUR (18s,14p,11d)
    16.0   2
* s-type functions
   18   18
    7.537300977720e9
    1.738489274010e9
    4.435327427690e8
    1.245701371690e8
    3.833309260830e7
    1.286300701120e7
    4.684432224670e6
    1.842698541360e6
    7.792406072660e5
    3.525704299300e5
    1.698690635220e5
86738.89221950000000
46717.72593510000000
26415.25671280000000
15605.23696110000000
 9586.61670954000000
 6095.04473184000000
 3991.55429570000000
* p-type functions
   14   14
    5.630909581560e7
    1.658047382600e7
    5.482049632910e6
    2.016455425020e6
    8.175341838610e5
    3.619652201980e5
    1.733977216000e5
89044.59177770000000
48565.88638940000000
27873.19150040000000
16678.06565800000000
10308.13876890000000
 6520.22263493000000
 4181.80887710000000
* d-type functions
   11   11
    4.251200984890e6
    1.449489205120e6
    5.613629806130e5
    2.432542831530e5
    1.161790098290e5
60243.16770040000000
33408.99327660000000
19518.97215600000000
11834.52883280000000
 7335.13274345000000
 4578.15473603000000

/Cl.muonic.Ugandi.18s14p11d.18s14p11d.
M. Ugandi, I. Fdez. Galvan, P.‐O. Widmark, R. Lindh. Int. J. Quantum Chemistry 118 (2018) e25755. doi:10.1002/qua.25755
CHLORINE (18s,14p,11d)
    17.0   2
* s-type functions
   18   18
    8.516229802920e9
    1.964028105140e9
    5.010246049740e8
    1.407074367950e8
    4.329694981210e7
    1.452832067540e7
    5.290868996130e6
    2.081266468190e6
    8.801426477200e5
    3.982343837630e5
    1.918758718000e5
97979.11484550000000
52773.24540880000000
29839.86481940000000
17628.61806530000000
10829.63117870000000
 6885.23322576000000
 4508.88178464000000
* p-type functions
   14   14
    6.358451457130e7
    1.872682076710e7
    6.192605253420e6
    2.278011988780e6
    9.236097223610e5
    4.089285991710e5
    1.958887922520e5
    1.005892161190e5
54859.21725150000000
31483.33668590000000
18837.42262970000000
11642.55790080000000
 7364.41315089000000
 4723.53690967000000
* d-type functions
   11   11
    4.804163134250e6
    1.637717218150e6
    6.341917428350e5
    2.748006723240e5
    1.312458494780e5
68057.96904540000000
37744.44564990000000
22052.75320620000000
13370.98257700000000
 8287.23412126000000
 5171.97852806000000

/Ar.muonic.Ugandi.18s14p11d.18s14p11d.
M. Ugandi, I. Fdez. Galvan, P.‐O. Widmark, R. Lindh. Int. J. Quantum Chemistry 118 (2018) e25755. doi:10.1002/qua.25755
ARGON (18s,14p,11d)
    18.0   2
* s-type functions
   18   18
    9.554242708750e9
    2.203599728590e9
    5.621766672750e8
    1.578893687770e8
    4.858578519360e7
    1.630339790460e7
    5.937394359720e6
    2.335601942460e6
    9.876958399190e5
    4.468948869180e5
    2.153186316470e5
    1.099482194690e5
59219.05243930000000
33484.02603700000000
19781.22356900000000
12151.90022800000000
 7725.86476600000000
 5059.39015917000000
* p-type functions
   14   14
    7.134575604220e7
    2.101151278350e7
    6.947895765060e6
    2.555824165290e6
    1.036251720770e6
    4.588081060090e5
    2.197876747200e5
    1.128643880040e5
61555.48847520000000
35327.08450840000000
21137.56161320000000
13064.20419060000000
 8263.55508880000000
 5300.07111879000000
* d-type functions
   11   11
    5.311193977810e6
    1.888383894560e6
    7.476100061670e5
    3.259770802580e5
    1.548341012210e5
79241.77785710000000
43220.55055880000000
24849.36635880000000
14896.00237450000000
 9208.60799667000000
 5806.68847702000000

/Cu.muonic.Ugandi.18s14p11d.18s14p11d.
M. Ugandi, I. Fdez. Galvan, P.‐O. Widmark, R. Lindh. Int. J. Quantum Chemistry 118 (2018) e25755. doi:10.1002/qua.25755
COPPER (18s,14p,11d)
    29.0   2
* s-type functions
   18   18
    2.48603303620e10
    5.734137178430e9
    1.462923514220e9
    4.108707510820e8
    1.264318807860e8
    4.242417856680e7
    1.544946556360e7
    6.077071668630e6
    2.569767536350e6
    1.162651631610e6
    5.601435804110e5
    2.860097347790e5
    1.540393459460e5
87094.27714400000000
51450.82919640000000
31606.59037460000000
20094.77425560000000
13159.71650360000000
* p-type functions
   14   14
    1.857351214630e8
    5.469195172990e7
    1.808282810300e7
    6.651158422210e6
    2.696439615900e6
    1.193771032790e6
    5.718245094800e5
    2.936231884010e5
    1.601320453730e5
91896.91454660000000
54983.55928070000000
33981.96373730000000
21494.24817370000000
13785.69521070000000
* d-type functions
   11   11
    1.401412962770e7
    4.778276573610e6
    1.850560087920e6
    8.019068791170e5
    3.829972127110e5
    1.986004830050e5
    1.101387355650e5
64348.29695700000000
39015.15168390000000
24181.92665580000000
15092.87388920000000
