************************************************************************
* This file is part of OpenMolcas.                                     *
*                                                                      *
* OpenMolcas is free software; you can redistribute it and/or modify   *
* it under the terms of the GNU Lesser General Public License, v. 2.1. *
* OpenMolcas is distributed in the hope that it will be useful, but it *
* is provided "as is" and without any express or implied warranties.   *
* For more details see the full text of the license in the file        *
* LICENSE or in <http://www.gnu.org/licenses/>.                        *
************************************************************************

#Hamiltonian RCP
#Nucleus UNK
#Contraction RAF
#AllElectron NAE

********************************************************************************
* See the file AIMP.README                                                     *
********************************************************************************

********************************************************************************
*    C.3. Douglas-Kroll-Hess (No-Pair) relativistic core AIMPs:
********************************************************************************
*                                                                  recommended
*                                                                  contraction
*       C.3.2. Transition Metal Elements
*         C.3.2.1. First Series Transition Metal Elements (core [Ne])
*           /Sc.NP-AIMP.Rakowitz.9s6p6d3f.5s4p4d1f.ECP.11el.
*           /Ti.NP-AIMP.Rakowitz.9s6p6d3f.5s4p4d1f.ECP.12el.
*           /V.NP-AIMP.Rakowitz.9s6p6d3f.5s4p4d1f.ECP.13el.
*           /Cr.NP-AIMP.Rakowitz.9s6p6d3f.5s4p4d1f.ECP.14el.
*           /Mn.NP-AIMP.Rakowitz.9s6p6d3f.5s4p4d1f.ECP.15el.
*           /Fe.NP-AIMP.Rakowitz.9s6p6d3f.5s4p4d1f.ECP.16el.
*           /Co.NP-AIMP.Rakowitz.9s6p6d3f.5s4p4d1f.ECP.17el.
*           /Ni.NP-AIMP.Rakowitz.9s6p6d3f.5s4p4d1f.ECP.18el.
*           /Cu.NP-AIMP.Rakowitz.9s6p6d3f.5s4p4d1f.ECP.19el.
*           /Zn.NP-AIMP.Rakowitz.9s6p6d3f.5s4p4d1f.ECP.20el.
*         C.3.2.2. Second Series Transition Metal Elements (core [Ar,3d])
*           /Y.NP-AIMP.Rakowitz.11s8p7d3f.5s4p4d1f.ECP.11el.
*           /Zr.NP-AIMP.Rakowitz.11s8p7d3f.5s4p4d1f.ECP.12el.
*           /Nb.NP-AIMP.Rakowitz.11s8p7d3f.5s4p4d1f.ECP.13el.
*           /Mo.NP-AIMP.Rakowitz.11s8p7d3f.5s4p4d1f.ECP.14el.
*           /Tc.NP-AIMP.Rakowitz.11s8p7d3f.5s4p4d1f.ECP.15el.
*           /Ru.NP-AIMP.Rakowitz.11s8p7d3f.5s4p4d1f.ECP.16el.
*           /Rh.NP-AIMP.Rakowitz.11s8p7d3f.5s4p4d1f.ECP.17el.
*           /Pd.NP-AIMP.Rakowitz.11s8p7d3f.5s4p4d1f.ECP.18el.
*           /Ag.NP-AIMP.Rakowitz.11s8p7d3f.5s4p4d1f.ECP.19el.
*           /Cd.NP-AIMP.Rakowitz.11s8p7d3f.5s4p4d1f.ECP.20el.
*         C.3.2.3. Third Series Transition Metal Elements (core [Kr,4d,4f])
*           /Hf.NP-AIMP.Rakowitz.13s10p9d6f.5s4p4d2f.ECP.12el.
*           /Hf.NP-AIMP.Rakowitz.13s10p9d1f.5s4p4d1f.ECP.12el.
*           /Ta.NP-AIMP.Rakowitz.13s10p9d6f.5s4p4d2f.ECP.13el.
*           /Ta.NP-AIMP.Rakowitz.13s10p9d1f.5s4p4d1f.ECP.13el.
*           /W.NP-AIMP.Rakowitz.13s10p9d6f.5s4p4d2f.ECP.14el.
*           /W.NP-AIMP.Rakowitz.13s10p9d1f.5s4p4d1f.ECP.14el.
*           /Re.NP-AIMP.Rakowitz.13s10p9d6f.5s4p4d2f.ECP.15el.
*           /Re.NP-AIMP.Rakowitz.13s10p9d1f.5s4p4d1f.ECP.15el.
*           /Os.NP-AIMP.Rakowitz.13s10p9d6f.5s4p4d2f.ECP.16el.
*           /Os.NP-AIMP.Rakowitz.13s10p9d1f.5s4p4d1f.ECP.16el.
*           /Ir.NP-AIMP.Rakowitz.13s10p9d6f.5s4p4d2f.ECP.17el.
*           /Ir.NP-AIMP.Rakowitz.13s10p9d1f.5s4p4d1f.ECP.17el.
*           /Pt.NP-AIMP.Rakowitz.13s10p9d6f.5s4p4d2f.ECP.18el.
*           /Pt.NP-AIMP.Rakowitz.13s10p9d1f.5s4p4d1f.ECP.18el.
*           /Au.NP-AIMP.Rakowitz.13s10p9d6f.5s4p4d2f.ECP.19el.
*           /Au.NP-AIMP.Rakowitz.13s10p9d1f.5s4p4d1f.ECP.19el.
*           /Hg.NP-AIMP.Rakowitz.13s10p9d6f.5s4p4d2f.ECP.20el.
*           /Hg.NP-AIMP.Rakowitz.13s10p9d1f.5s4p4d1f.ECP.20el.
*       C.3.3. f-Elements
*         C.3.3.1.a. Lanthanide Elements (core [Kr,4d])
*           /Ce.DK3-AIMP.Tsuchiya.14s10p9d8f.2s1p1d1f.ECP.12el.       6s5p5d4f
*           /Pr.DK3-AIMP.Tsuchiya.14s10p9d8f.2s1p1d1f.ECP.13el.       6s5p5d4f
*           /Nd.DK3-AIMP.Tsuchiya.14s10p9d8f.2s1p1d1f.ECP.14el.       6s5p5d4f
*           /Pm.DK3-AIMP.Tsuchiya.14s10p9d8f.2s1p1d1f.ECP.15el.       6s5p5d4f
*           /Sm.DK3-AIMP.Tsuchiya.14s10p9d8f.2s1p1d1f.ECP.16el.       6s5p5d4f
*           /Eu.DK3-AIMP.Tsuchiya.14s10p9d8f.2s1p1d1f.ECP.17el.       6s5p5d4f
*           /Gd.DK3-AIMP.Tsuchiya.14s10p9d8f.2s1p1d1f.ECP.18el.       6s5p5d4f
*           /Tb.DK3-AIMP.Tsuchiya.14s10p9d8f.2s1p1d1f.ECP.19el.       6s5p5d4f
*           /Dy.DK3-AIMP.Tsuchiya.14s10p9d8f.2s1p1d1f.ECP.20el.       6s5p5d4f
*           /Ho.DK3-AIMP.Tsuchiya.14s10p9d8f.2s1p1d1f.ECP.21el.       6s5p5d4f
*           /Er.DK3-AIMP.Tsuchiya.14s10p9d8f.2s1p1d1f.ECP.22el.       6s5p5d4f
*           /Tm.DK3-AIMP.Tsuchiya.14s10p9d8f.2s1p1d1f.ECP.23el.       6s5p5d4f
*           /Yb.DK3-AIMP.Tsuchiya.14s10p9d8f.2s1p1d1f.ECP.24el.       6s5p5d4f
*           /Lu.DK3-AIMP.Tsuchiya.14s10p9d8f.2s1p1d1f.ECP.25el.       6s5p5d4f
*         C.3.3.2.a. Actinide Elements (core [Xe,4f,5d])
*           /Th.DK3-AIMP.Paulovic.14s10p11d9f.2s1p1d1f.ECP.12el.      6s5p5d4f
*           /Pa.DK3-AIMP.Paulovic.14s10p11d9f.2s1p1d1f.ECP.13el.      6s5p5d4f
*           /U.DK3-AIMP.Paulovic.14s10p11d9f.2s1p1d1f.ECP.14el.       6s5p5d4f
*           /Np.DK3-AIMP.Paulovic.14s10p11d9f.2s1p1d1f.ECP.15el.      6s5p5d4f
*           /Pu.DK3-AIMP.Paulovic.14s10p11d9f.2s1p1d1f.ECP.16el.      6s5p5d4f
*           /Am.DK3-AIMP.Paulovic.14s10p11d9f.2s1p1d1f.ECP.17el.      6s5p5d4f
*           /Cm.DK3-AIMP.Paulovic.14s10p11d9f.2s1p1d1f.ECP.18el.      6s5p5d4f
*           /Bk.DK3-AIMP.Paulovic.14s10p11d9f.2s1p1d1f.ECP.19el.      6s5p5d4f
*           /Cf.DK3-AIMP.Paulovic.14s10p11d9f.2s1p1d1f.ECP.20el.      6s5p5d4f
*           /Es.DK3-AIMP.Paulovic.14s10p11d9f.2s1p1d1f.ECP.21el.      6s5p5d4f
*           /Fm.DK3-AIMP.Paulovic.14s10p11d9f.2s1p1d1f.ECP.22el.      6s5p5d4f
*           /Md.DK3-AIMP.Paulovic.14s10p11d9f.2s1p1d1f.ECP.23el.      6s5p5d4f
*           /No.DK3-AIMP.Paulovic.14s10p11d9f.2s1p1d1f.ECP.24el.      6s5p5d4f
*           /Lr.DK3-AIMP.Paulovic.14s10p11d9f.2s1p1d1f.ECP.25el.      6s5p5d4f
*         C.3.3.2.b. Actinide Elements (core [Xe,4f])
*           /Th.DK3-AIMP.Paulovic.14s10p12d9f.2s1p2d1f.ECP.22el.      6s5p6d4f
*           /Pa.DK3-AIMP.Paulovic.14s10p12d9f.2s1p2d1f.ECP.23el.      6s5p6d4f
*           /U.DK3-AIMP.Paulovic.14s10p12d9f.2s1p2d1f.ECP.24el.       6s5p6d4f
*           /Np.DK3-AIMP.Paulovic.14s10p12d9f.2s1p2d1f.ECP.25el.      6s5p6d4f
*           /Pu.DK3-AIMP.Paulovic.14s10p12d9f.2s1p2d1f.ECP.26el.      6s5p6d4f
*           /Am.DK3-AIMP.Paulovic.14s10p12d9f.2s1p2d1f.ECP.27el.      6s5p6d4f
*           /Cm.DK3-AIMP.Paulovic.14s10p12d9f.2s1p2d1f.ECP.28el.      6s5p6d4f
*           /Bk.DK3-AIMP.Paulovic.14s10p12d9f.2s1p2d1f.ECP.29el.      6s5p6d4f
*           /Cf.DK3-AIMP.Paulovic.14s10p12d9f.2s1p2d1f.ECP.30el.      6s5p6d4f
*           /Es.DK3-AIMP.Paulovic.14s10p12d9f.2s1p2d1f.ECP.31el.      6s5p6d4f
*           /Fm.DK3-AIMP.Paulovic.14s10p12d9f.2s1p2d1f.ECP.32el.      6s5p6d4f
*           /Md.DK3-AIMP.Paulovic.14s10p12d9f.2s1p2d1f.ECP.33el.      6s5p6d4f
*           /No.DK3-AIMP.Paulovic.14s10p12d9f.2s1p2d1f.ECP.34el.      6s5p6d4f
*           /Lr.DK3-AIMP.Paulovic.14s10p12d9f.2s1p2d1f.ECP.35el.      6s5p6d4f
********************************************************************************

********************************************************************************
*       C.3.2. Transition Metal Elements
********************************************************************************
*
*  References:
*
*    - F. Rakowitz, C.M. Marian, L. Seijo, U. Wahlgren. J. Chem. Phys. 110 (1999) 3678-3686. doi:10.1063/1.478257
*
*    - F. Rakowitz, C.M. Marian, L. Seijo. J. Chem. Phys. 111 (1999) 10436-10443. doi:10.1063/1.480398
*
********************************************************************************
*         C.3.2.1. First Series Transition Metal Elements (core [Ne])
********************************************************************************
*  - 2nd order Douglas-Kroll-Hess
*  - p polarization functions:
*    S. Huzinaga (Editor), J. Andzelm, M. Klobukowski, E. Radzio-Andzelm, Y. Sakai, H. Tatewaki.
*    "Gaussian Basis Sets for Molecular Calculations" (Elsevier, Amsterdam, 1984).
*  - f polarization functions:
*       - Slater exponents:
*         C.W. Bauschlicher, Jr., S.R. Langhoff, H. Partridge, L.A. Barnes. J. Chem. Phys. 91 (1989) 2399-2411. doi:10.1063/1.456998
*       - 3-GTO expansion:
*         R.F. Stewart. J. Chem. Phys. 52 (1970) 431-438. doi:10.1063/1.1672702
********************************************************************************

/Sc.NP-AIMP.Rakowitz.9s6p6d3f.5s4p4d1f.ECP.11el.
F. Rakowitz, C.M. Marian, L. Seijo. J. Chem. Phys. 111 (1999) 10436-10443. doi:10.1063/1.480398
SCANDIUM (9s,6p,6d,3f) -> [5s,4p,4d,1f]
********************************************************************************
*core [Ne] (9/51/6/3)
*SC-NP-(d1s2)2D-(9/51/6/3)
********************************************************************************
    11.0   3
* s-type functions
    9    5
       2585.35502000
        379.24007100
         83.92443370
          7.76326000
          3.07226158
          1.30511709
       4952.39167e-4
       7040.92325e-5
       2768.14925e-5
  0.006090008370  0.001500079850  0.000000000000  0.000000000000  0.000000000000
  0.038548868400  0.009503186650  0.000000000000  0.000000000000  0.000000000000
  0.115745182000  0.028720858600  0.000000000000  0.000000000000  0.000000000000
 -0.461299224000 -0.122244057000  0.000000000000  0.000000000000  0.000000000000
 -0.338359455000 -0.092394325400  0.000000000000  0.000000000000  0.000000000000
  0.640201047000  0.203384092000  0.000000000000  0.000000000000  0.000000000000
  0.674203070000  0.379278032000  1.000000000000  0.000000000000  0.000000000000
  0.026253504400 -0.713947875000  0.000000000000  1.000000000000  0.000000000000
 -0.004160297080 -0.435595598000  0.000000000000  0.000000000000  1.000000000000
* p-type functions
    6    4
        168.67547800
         38.66119230
         11.32213240
          1.29863135
       4347.32651e-4
          0.06700000
 -0.017629939000  0.000000000000  0.000000000000  0.000000000000
 -0.101048397000  0.000000000000  0.000000000000  0.000000000000
 -0.230028966000  0.000000000000  0.000000000000  0.000000000000
  0.611361133000  1.000000000000  0.000000000000  0.000000000000
  0.480246892000  0.000000000000  1.000000000000  0.000000000000
  0.000000000000  0.000000000000  0.000000000000  1.000000000000
* d-type functions
    6    4
         19.40826630
          5.14942471
          1.65956538
       5393.02448e-4
       1611.69796e-4
          0.05880000
  0.026131785000  0.000000000000  0.000000000000  0.000000000000
  0.134479416000  0.000000000000  0.000000000000  0.000000000000
  0.340252580000  0.000000000000  0.000000000000  0.000000000000
  0.485486084000  1.000000000000  0.000000000000  0.000000000000
  0.336970202000  0.000000000000  1.000000000000  0.000000000000
  0.042747760600  0.000000000000  0.000000000000  1.000000000000
* f-type functions
    3    1
      89185.96649e-5
       3198.41423e-4
      13695.98865e-5
  0.173785671590
  0.597338080410
  0.392939567570
********************************************************************************
* Core AIMP: SC-NP-(d1s2)2D-[NE]
*
* Local Potential Parameters : (ECP convention)
*                              A(AIMP)=-Zeff*A(ECP)
********************************************************************************
M1
 10
  3.6158100000e5  5.4430500000e4  1.2570400000e4  3.4649200000e3  1.0852600000e3  3.7576600000e2  1.3113900000e2 42.194500000000 17.461300000000  7.825920000000
  0.010792459273  0.013260596636  0.024186061727  0.042800875909  0.072634024000  0.103295719091  0.107136608182  0.200293510000  0.269164295455  0.065526759000
M2
  0
COREREP
 1.0
PROJOP
    1
   16    2
  3.3363385000e2 38.520674000000
     595831.95000000
      89262.93200000
      20314.54900000
       5752.75870000
       1875.82490000
        676.36545000
        262.84903000
        108.03945000
         45.84576200
         17.59919300
          8.17580600
          3.70731900
          1.15103400
          0.46961800
          0.07344400
          0.02915200
  0.000377015940 -0.000111626300
  0.001233093400 -0.000365867051
  0.003990532500 -0.001187185800
  0.012659267000 -0.003799801610
  0.039237786000 -0.011965161000
  0.109570110000 -0.034985503100
  0.249300990000 -0.087777504100
  0.389939320000 -0.174205770000
  0.300079980000 -0.194762150000
  0.055417513000  0.124383630000
 -0.006474265300  0.597915331000
  0.002790290200  0.410177791000
 -0.000909038270  0.030160604000
  0.000334466200 -0.003971686710
 -0.000090784441  0.001034767200
  0.000043449469 -0.000483913101
   11    1
 31.368591000000
       3038.01120000
        720.01728000
        233.16928000
         88.30313200
         36.83342500
         16.24220000
          7.41303600
          3.43545800
          1.50379100
          0.64245000
          0.25791000
  0.000565759023
  0.003816311220
  0.019140878100
  0.071302624400
  0.192886921000
  0.353851742000
  0.380554052000
  0.162787521000
  0.014539020100
  0.000433247132
 -0.000018201333
Spectral Representation Operator
External primitive basis
    3
   16
       2585.35502000
        379.24007100
         83.92443370
          7.76326000
          3.07226158
          1.30511709
       4952.39167e-4
       7040.92325e-5
       2768.14925e-5
     595831.95000000
      89262.93200000
      20314.54900000
       5752.75870000
        676.36545000
         45.84576200
         17.59919300
   11
        168.67547800
         38.66119230
         11.32213240
          1.29863135
       4347.32651e-4
          0.06700000
       3038.01120000
        720.01728000
         88.30313200
         16.24220000
          3.43545800
    7
         19.40826630
          5.14942471
          1.65956538
       5393.02448e-4
       1611.69796e-4
          0.05880000
         73.62056800
    3
      89185.96649e-5
       3198.41423e-4
      13695.98865e-5
Exchange
NoPair
End of Spectral Representation Operator

/Ti.NP-AIMP.Rakowitz.9s6p6d3f.5s4p4d1f.ECP.12el.
F. Rakowitz, C.M. Marian, L. Seijo. J. Chem. Phys. 111 (1999) 10436-10443. doi:10.1063/1.480398
TITANIUM (9s,6p,6d,3f) -> [5s,4p,4d,1f]
********************************************************************************
*core [Ne] (9/51/6/3)
*TI-NP-(d2s2)3F-(9/51/6/3)
********************************************************************************
    12.0   3
* s-type functions
    9    5
       2866.39157000
        419.27891800
         92.74846200
          8.66336980
          3.45908896
          1.46306287
       5588.77832e-4
       7828.33798e-5
       3025.15326e-5
  0.006263404312  0.001493412090  0.000000000000  0.000000000000  0.000000000000
  0.039448879961  0.009414607493  0.000000000000  0.000000000000  0.000000000000
  0.118701574335  0.028517951120  0.000000000000  0.000000000000  0.000000000000
 -0.474441311068 -0.121953876576  0.000000000000  0.000000000000  0.000000000000
 -0.329943607096 -0.087189349413  0.000000000000  0.000000000000  0.000000000000
  0.650482816910  0.201703787739  0.000000000000  0.000000000000  0.000000000000
  0.663808210495  0.362888201304  1.000000000000  0.000000000000  0.000000000000
  0.024688149167 -0.693436837938  0.000000000000  1.000000000000  0.000000000000
 -0.004957429513 -0.452411540422  0.000000000000  0.000000000000  1.000000000000
* p-type functions
    6    4
        190.31453200
         43.67077230
         12.85323600
          1.49173883
          0.49884322
          0.07300000
 -0.017697213843  0.000000000000  0.000000000000  0.000000000000
 -0.102228214173  0.000000000000  0.000000000000  0.000000000000
 -0.234955352863  0.000000000000  0.000000000000  0.000000000000
  0.614958174538  1.000000000000  0.000000000000  0.000000000000
  0.476871299047  0.000000000000  1.000000000000  0.000000000000
  0.000000000000  0.000000000000  0.000000000000  1.000000000000
* d-type functions
    6    4
         23.51654780
          6.33051398
          2.07036340
       6865.64691e-4
          0.20931527
          0.07200000
  0.026293930741  0.000000000000  0.000000000000  0.000000000000
  0.137182438097  0.000000000000  0.000000000000  0.000000000000
  0.350262910046  0.000000000000  0.000000000000  0.000000000000
  0.488624812622  1.000000000000  0.000000000000  0.000000000000
  0.316495004748  0.000000000000  1.000000000000  0.000000000000
  0.034362747940  0.000000000000  0.000000000000  1.000000000000
* f-type functions
    3    1
      13935.30726e-4
      49975.22235e-5
      21399.98227e-5
  0.173785671590
  0.597338080410
  0.392939567570
********************************************************************************
* Core AIMP: TI-NP-(d2s2)3F-[NE]
*
* Local Potential Parameters : (ECP convention)
*                              A(AIMP)=-Zeff*A(ECP)
********************************************************************************
M1
 10
  3.7119800000e5  5.7107400000e4  1.3407400000e4  3.7387200000e3  1.1822700000e3  4.1233200000e2  1.4456700000e2 46.808900000000 19.498000000000  8.781450000000
  0.010244906583  0.012366356667  0.022422707750  0.039518527667  0.066682695083  0.094591245833  0.098405043333  0.184224022500  0.245913230000  0.058964598167
M2
  0
COREREP
 1.0
PROJOP
    1
   16    2
  3.6878566000e2 43.297192000000
     654125.31000000
      97995.93300000
      22302.01200000
       6315.58110000
       2059.35490000
        742.55919000
        288.60525000
        118.65832000
         50.37238700
         19.28110700
          9.01933200
          4.11772400
          1.30633600
          0.53009200
          0.08139900
          0.03171500
  0.000397558757 -0.000118821430
  0.001288796890 -0.000386052718
  0.004120759760 -0.001237725000
  0.012902020900 -0.003911399980
  0.039604446700 -0.012197623000
  0.110053359000 -0.035515462900
  0.249797798000 -0.088895842600
  0.389896627000 -0.176331759000
  0.299383417000 -0.195681749000
  0.055046569500  0.131879889000
 -0.006867624040  0.601587728000
  0.002903716370  0.401090868000
 -0.000944213602  0.029392025900
  0.000338789307 -0.003496254890
 -0.000089031552  0.000912954616
  0.000042354341 -0.000423096588
   11    1
 35.633431000000
       3401.43710000
        806.13331000
        261.10790000
         98.94156500
         41.31026400
         18.24833800
          8.35073900
          3.87949700
          1.70921900
          0.73240400
          0.29421700
  0.000574705817
  0.003801632880
  0.018990591900
  0.070820781600
  0.192346659000
  0.354404928000
  0.380763868000
  0.161800779000
  0.014482542900
  0.000589375617
  0.000005050613
Spectral Representation Operator
External primitive basis
    3
   16
       2866.39157000
        419.27891800
         92.74846200
          8.66336980
          3.45908896
          1.46306287
       5588.77832e-4
       7828.33798e-5
       3025.15326e-5
     654125.31000000
      97995.93300000
      22302.01200000
       6315.58110000
        742.55919000
         50.37238700
         19.28110700
   11
        190.31453200
         43.67077230
         12.85323600
          1.49173883
          0.49884322
          0.07300000
       3401.43710000
        806.13331000
         98.94156500
         18.24833800
          3.87949700
    7
         23.51654780
          6.33051398
          2.07036340
       6865.64691e-4
          0.20931527
          0.07200000
         89.71138900
    3
      13935.30726e-4
      49975.22235e-5
      21399.98227e-5
Exchange
NoPair
End of Spectral Representation Operator

/V.NP-AIMP.Rakowitz.9s6p6d3f.5s4p4d1f.ECP.13el.
F. Rakowitz, C.M. Marian, L. Seijo. J. Chem. Phys. 111 (1999) 10436-10443. doi:10.1063/1.480398
VANADIUM (9s,6p,6d,3f) -> [5s,4p,4d,1f]
********************************************************************************
*core [Mg] (9/51/6/3)
*V-NP-(d3s2)4F-(9/51/6/3)
********************************************************************************
    13.0   3
* s-type functions
    9    5
       3184.57628000
        464.09166200
        102.39099800
          9.63943460
          3.83208211
          1.67958206
       6339.37707e-4
       8512.39851e-5
       3237.45215e-5
  0.006384720000  0.001452990000  0.000000000000  0.000000000000  0.000000000000
  0.040057180000  0.009124920000  0.000000000000  0.000000000000  0.000000000000
  0.121468090000  0.027860740000  0.000000000000  0.000000000000  0.000000000000
 -0.483118140000 -0.118850940000  0.000000000000  0.000000000000  0.000000000000
 -0.340531020000 -0.086009390000  0.000000000000  0.000000000000  0.000000000000
  0.654135150000  0.193602520000  0.000000000000  0.000000000000  0.000000000000
  0.676399100000  0.351937470000  1.000000000000  0.000000000000  0.000000000000
  0.022051040000 -0.687012550000  0.000000000000  1.000000000000  0.000000000000
 -0.007993550000 -0.453921330000  0.000000000000  0.000000000000  1.000000000000
* p-type functions
    6    4
        213.39029200
         49.02008070
         14.50045240
          1.69970365
          0.56738328
          0.08000000
 -0.017733220000  0.000000000000  0.000000000000  0.000000000000
 -0.102943180000  0.000000000000  0.000000000000  0.000000000000
 -0.239177970000  0.000000000000  0.000000000000  0.000000000000
  0.615309960000  1.000000000000  0.000000000000  0.000000000000
  0.476841430000  0.000000000000  1.000000000000  0.000000000000
  0.000000000000  0.000000000000  0.000000000000  1.000000000000
* d-type functions
    6    4
         27.33309320
          7.42993054
          2.45086261
       8193.39806e-4
       2505.94182e-4
          0.08200000
  0.026602490000  0.000000000000  0.000000000000  0.000000000000
  0.139804850000  0.000000000000  0.000000000000  0.000000000000
  0.355455600000  0.000000000000  0.000000000000  0.000000000000
  0.487035400000  1.000000000000  0.000000000000  0.000000000000
  0.309266640000  0.000000000000  1.000000000000  0.000000000000
  0.032968440000  0.000000000000  0.000000000000  1.000000000000
* f-type functions
    3    1
      20066.84246e-4
      71964.32018e-5
      30815.97447e-5
  0.173785671590
  0.597338080410
  0.392939567570
********************************************************************************
* Core AIMP: V-NP-(d3s2)4F-[NE]
*
* Local Potential Parameters : (ECP convention)
*                              A(AIMP)=-Zeff*A(ECP)
********************************************************************************
M1
 10
  3.8097600000e5  5.9884600000e4  1.4293600000e4  4.0378300000e3  1.2880900000e3  4.5208000000e2  1.5942700000e2 51.883800000000 21.690300000000  9.797280000000
  0.009770878692  0.011586017308  0.020873185538  0.036593731308  0.061590582308  0.087091908462  0.090859442308  0.170193730000  0.226906810000  0.053764483769
M2
  0
COREREP
 1.0
PROJOP
    1
   16    2
  4.0571653000e2 48.308459000000
     713918.57000000
     106953.76000000
      24340.65000000
       6892.89690000
       2247.61200000
        810.45926000
        315.02764000
        129.55436000
         55.01670500
         20.97445500
          9.87185320
          4.53436210
          1.46565790
          0.59143144
        890.13135e-4
        341.13527e-4
  0.000419165077  0.000126358229
  0.001347797190  0.000407258467
  0.004261376570  0.001291211390
  0.013177528900  0.004031736170
  0.040062507700  0.012451927900
  0.110746369000  0.036097278800
  0.250633908000  0.090089730400
  0.389987708000  0.178508279000
  0.298213668000  0.196125359000
  0.054357699700 -0.141179269000
 -0.007255097750 -0.605313896000
  0.003014233880 -0.390521887000
 -0.000976932344 -0.028344050800
  0.000342682788  0.003036974780
 -0.000087414661 -0.000800264015
  0.000041352728  0.000368332588
   11    1
 40.119336000000
       3780.95510000
        896.05989000
        290.28218000
        110.05211000
         45.98722600
         20.34546400
          9.33146730
          4.34320920
          1.92294300
          0.82555806
          0.33173135
  0.000586012267
  0.003801792580
  0.018903983900
  0.070527354700
  0.192132699000
  0.355132608000
  0.380731678000
  0.160586479000
  0.014380026900
  0.000730306317
  0.000024136912
Spectral Representation Operator
External primitive basis
    3
   16
       3184.57628000
        464.09166200
        102.39099800
          9.63943460
          3.83208211
          1.67958206
       6339.37707e-4
       8512.39851e-5
       3237.45215e-5
     713918.56800000
     106953.75800000
      24340.65030000
       6892.89690000
        810.45926200
         55.01670500
         20.97445500
   11
        213.39029200
         49.02008070
         14.50045240
          1.69970365
          0.56738328
          0.08000000
       3780.95513000
        896.05988500
        110.05210900
         20.34546400
          4.34320900
    7
         27.33309320
          7.42993054
          2.45086261
       8193.39806e-4
       2505.94182e-4
          0.08200000
        104.13317200
    3
      20066.84246e-4
      71964.32018e-5
      30815.97447e-5
Exchange
NoPair
End of Spectral Representation Operator

/Cr.NP-AIMP.Rakowitz.9s6p6d3f.5s4p4d1f.ECP.14el.
F. Rakowitz, C.M. Marian, L. Seijo. J. Chem. Phys. 111 (1999) 10436-10443. doi:10.1063/1.480398
CHROMIUM (9s,6p,6d,3f) -> [5s,4p,4d,1f]
********************************************************************************
*core [Ne] (9/51/6/3)
*CR-NP-(d5s1)7S-(9/51/6/3)
********************************************************************************
    14.0   3
* s-type functions
    9    5
       3464.10430000
        501.91404200
        111.07844200
         10.83730900
          4.78961997
          1.71068323
       6649.32232e-4
       8148.80306e-5
       3077.70823e-5
  0.006558532870  0.001385315331  0.000000000000  0.000000000000  0.000000000000
  0.040954992689  0.008660131673  0.000000000000  0.000000000000  0.000000000000
  0.122506007542  0.026088542559  0.000000000000  0.000000000000  0.000000000000
 -0.464338132466 -0.105974868019  0.000000000000  0.000000000000  0.000000000000
 -0.298199001290 -0.070298685113  0.000000000000  0.000000000000  0.000000000000
  0.643752840250  0.186420918315  0.000000000000  0.000000000000  0.000000000000
  0.628183323808  0.299920161989  1.000000000000  0.000000000000  0.000000000000
  0.021801297693 -0.681405173906  0.000000000000  1.000000000000  0.000000000000
 -0.008694175928 -0.443652824344  0.000000000000  0.000000000000  1.000000000000
* p-type functions
    6    4
        237.90908800
         54.69149070
         16.22787010
          1.89299855
          0.61373096
          0.07700000
 -0.017511996315  0.000000000000  0.000000000000  0.000000000000
 -0.102411242803  0.000000000000  0.000000000000  0.000000000000
 -0.239393763921  0.000000000000  0.000000000000  0.000000000000
  0.618403065879  1.000000000000  0.000000000000  0.000000000000
  0.477401874153  0.000000000000  1.000000000000  0.000000000000
  0.000000000000  0.000000000000  0.000000000000  1.000000000000
* d-type functions
    6    4
         27.60722190
          7.45992701
          2.42432023
       7763.97808e-4
          0.21752465
          0.09120000
  0.030456619616  0.000000000000  0.000000000000  0.000000000000
  0.155563794257  0.000000000000  0.000000000000  0.000000000000
  0.367985479833  0.000000000000  0.000000000000  0.000000000000
  0.474585643873  1.000000000000  0.000000000000  0.000000000000
  0.314094804479  0.000000000000  1.000000000000  0.000000000000
  0.042841336208  0.000000000000  0.000000000000  1.000000000000
* f-type functions
    3    1
      27313.20224e-4
       9795.14358e-4
      41943.96526e-5
  0.173785671590
  0.597338080410
  0.392939567570
********************************************************************************
* Core AIMP: CR-NP-(d5s1)7S-[NE]
*
* Local Potential Parameters : (ECP convention)
*                              A(AIMP)=-Zeff*A(ECP)
********************************************************************************
M1
 10
  3.8944600000e5  6.2367900000e4  1.5093000000e4  4.3068900000e3  1.3843400000e3  4.8847600000e2  1.7281000000e2 56.674700000000 23.860200000000 10.817670000000
  0.009378636929  0.010950502714  0.019640465929  0.034303183286  0.057517398929  0.080939561429  0.084489394286  0.159100272857  0.209397807857  0.048568489786
M2
  0
COREREP
 1.0
PROJOP
    1
   16    2
  4.4403740000e2 53.115900000000
     763522.64000000
     114385.92000000
      26032.11600000
       7371.90590000
       2403.82780000
        866.82102000
        336.98062000
        138.62727000
         58.86707800
         22.04390300
         10.44904200
          4.84368820
          1.59379760
          0.62492293
        884.70371e-4
        340.98566e-4
  0.000447052801 -0.000135834890
  0.001428150200 -0.000435074879
  0.004474893110 -0.001366783000
  0.013696192000 -0.004228220390
  0.041276501100 -0.012938628000
  0.113355610000 -0.037357616900
  0.254766051000 -0.092606436800
  0.391416361000 -0.182615720000
  0.292562371000 -0.193446210000
  0.050772474100  0.170177920000
 -0.007951750820  0.612171999000
  0.003200411010  0.360975089000
 -0.001010919500  0.024476207900
  0.000338554041 -0.002140180200
 -0.000085420973  0.000733706128
  0.000041484537 -0.000197618080
   11    1
 44.394180000000
       4069.81530000
        964.51641000
        312.45566000
        118.47285000
         49.51318900
         21.90749100
         10.04939400
          4.66231970
          2.06930800
          0.88095618
          0.34772978
  0.000622050715
  0.003974544270
  0.019652290800
  0.073060383400
  0.197999118000
  0.362040717000
  0.377053787000
  0.149382819000
  0.011950544900
  0.001021941490
  0.000059070711
Spectral Representation Operator
External primitive basis
    3
   16
       3464.10430000
        501.91404200
        111.07844200
         10.83730900
          4.78961997
          1.71068323
       6649.32232e-4
       8148.80306e-5
       3077.70823e-5
     763522.64000000
     114385.92000000
      26032.11600000
       7371.90590000
        866.82102000
         58.86707800
         22.04390300
   11
        237.90908800
         54.69149070
         16.22787010
          1.89299855
          0.61373096
          0.07700000
       4069.81530000
        964.51641000
        118.47285000
         21.90749100
          4.66231970
    7
         27.60722190
          7.45992701
          2.42432023
       7763.97808e-4
          0.21752465
          0.09120000
        101.65839000
    3
      27313.20224e-4
       9795.14358e-4
      41943.96526e-5
Exchange
NoPair
End of Spectral Representation Operator

/Mn.NP-AIMP.Rakowitz.9s6p6d3f.5s4p4d1f.ECP.15el.
F. Rakowitz, C.M. Marian, L. Seijo. J. Chem. Phys. 111 (1999) 10436-10443. doi:10.1063/1.480398
MANGANESE (9s,6p,6d,3f) -> [5s,4p,4d,1f]
********************************************************************************
*core [Ne] (9/51/6/3)
*MN-NP-(d5s2)6S-(9/51/6/3)
********************************************************************************
    15.0   3
* s-type functions
    9    5
       3888.34098000
        560.74790700
        122.96968000
         11.57831240
          4.30234430
          2.13591980
          0.77690059
       9907.04871e-5
       3667.18071e-5
  0.006607357260  0.001223369160  0.000000000000  0.000000000000  0.000000000000
  0.041263256479  0.007649961242  0.000000000000  0.000000000000  0.000000000000
  0.126146631789  0.023571432580  0.000000000000  0.000000000000  0.000000000000
 -0.517925915723 -0.105051595585  0.000000000000  0.000000000000  0.000000000000
 -0.370014015211 -0.077659298568  0.000000000000  0.000000000000  0.000000000000
  0.715743091418  0.176968093443  0.000000000000  0.000000000000  0.000000000000
  0.683708061905  0.311424074793  1.000000000000  0.000000000000  0.000000000000
  0.000206131193 -0.670274549839  0.000000000000  1.000000000000  0.000000000000
 -0.021890526696 -0.463600241232  0.000000000000  0.000000000000  1.000000000000
* p-type functions
    6    4
        262.88552800
         60.45360130
         17.99949800
          2.13405706
       7083.93156e-4
          0.09200000
 -0.017769466063  0.000000000000  0.000000000000  0.000000000000
 -0.104324584272  0.000000000000  0.000000000000  0.000000000000
 -0.244758360810  0.000000000000  0.000000000000  0.000000000000
  0.620708012496  1.000000000000  0.000000000000  0.000000000000
  0.472145396129  0.000000000000  1.000000000000  0.000000000000
  0.000000000000  0.000000000000  0.000000000000  1.000000000000
* d-type functions
    6    4
         35.35664760
          9.73675350
          3.24712882
          1.09451716
       3345.12045e-4
          0.10540000
  0.027109106823  0.000000000000  0.000000000000  0.000000000000
  0.144207173564  0.000000000000  0.000000000000  0.000000000000
  0.362823127186  0.000000000000  0.000000000000  0.000000000000
  0.483736119826  1.000000000000  0.000000000000  0.000000000000
  0.300248795451  0.000000000000  1.000000000000  0.000000000000
  0.031820812907  0.000000000000  0.000000000000  1.000000000000
* f-type functions
    3    1
          3.56743866
      12793.65692e-4
      54783.95462e-5
  0.173785671590
  0.597338080410
  0.392939567570
********************************************************************************
* Core AIMP: MN-NP-(d5s2)6S-[NE]
*
* Local Potential Parameters : (ECP convention)
*                              A(AIMP)=-Zeff*A(ECP)
********************************************************************************
M1
 10
  3.9879300000e5  6.5132400000e4  1.5986700000e4  4.6080000000e3  1.4925700000e3  5.2958300000e2  1.8813800000e2 62.034400000000 26.232800000000 11.928950000000
  0.009018918000  0.010359885333  0.018503964467  0.032190187200  0.053772254400  0.075444576667  0.078877262000  0.148805570667  0.194927576000  0.044766472600
M2
  0
COREREP
 1.0
PROJOP
    1
   16    2
  4.8494168000e2 59.048759000000
     838614.74000000
     125635.08000000
      28592.19100000
       8096.87950000
       2640.22290000
        952.07110000
        370.14299000
        152.29321000
         64.71388200
         24.44221700
         11.61120800
          5.38545970
          1.79619990
          0.71706245
          0.10334880
        384.90735e-4
  0.000465158072  0.000142367100
  0.001473911100  0.000452296530
  0.004566142420  0.001405181400
  0.013797309000  0.004291243400
  0.041156466100  0.013002415000
  0.112508140000  0.037345730000
  0.252864941000  0.092563187000
  0.390320021000  0.182804830000
  0.295026841000  0.195919660000
  0.052481133200 -0.163096020000
 -0.007928650630 -0.612319930000
  0.003209651810 -0.366975860000
 -0.001033663300 -0.025767489000
  0.000348329161  0.002197266200
 -0.000084090850 -0.000603266780
  0.000039497466  0.000274845720
   11    1
 49.761932000000
       4590.51900000
       1087.88240000
        352.51409000
        133.75729000
         55.97042300
         24.82608100
         11.42832700
          5.33301310
          2.37704300
          1.02242830
          0.41080326
  0.000613769784
  0.003832743460
  0.018854892800
  0.070294208300
  0.192275388000
  0.356785606000
  0.380212996000
  0.157952338000
  0.014133131900
  0.000962610650
  0.000056240587
Spectral Representation Operator
External primitive basis
    3
   16
       3888.34098000
        560.74790700
        122.96968000
         11.57831240
          4.30234430
          2.13591980
          0.77690059
       9907.04871e-5
       3667.18071e-5
     838614.74000000
     125635.08000000
      28592.19100000
       8096.87950000
        952.07110000
         64.71388200
         24.44221700
   11
        262.88552800
         60.45360130
         17.99949800
          2.13405706
       7083.93156e-4
          0.09200000
       4590.51900000
       1087.88240000
        133.75729000
         24.82608100
          5.33301310
    7
         35.35664760
          9.73675350
          3.24712882
          1.09451716
       3345.12045e-4
          0.10540000
        133.76343700
    3
          3.56743866
      12793.65692e-4
      54783.95462e-5
Exchange
NoPair
End of Spectral Representation Operator


/Fe.NP-AIMP.Rakowitz.9s6p6d3f.5s4p4d1f.ECP.16el.
F. Rakowitz, C.M. Marian, L. Seijo. J. Chem. Phys. 111 (1999) 10436-10443. doi:10.1063/1.480398
IRON (9s,6p,6d,3f) -> [5s,4p,4d,1f]
********************************************************************************
*core [Ne] (9/51/6/3)
*FE-NP-(d6s2)5D-(9/51/6/3)
********************************************************************************
    16.0   3
* s-type functions
    9    5
       4236.42440000
        610.71334400
        133.94926300
         12.60524000
          4.48471479
          2.36196333
       8526.56165e-4
          0.10809161
       3940.64313e-5
  0.006710609691  0.001439850137  0.000000000000  0.000000000000  0.000000000000
  0.041523073280  0.008920559475  0.000000000000  0.000000000000  0.000000000000
  0.127047644109  0.027476197607  0.000000000000  0.000000000000  0.000000000000
 -0.531009773641 -0.123358735506  0.000000000000  0.000000000000  0.000000000000
 -0.383790324064 -0.092842583833  0.000000000000  0.000000000000  0.000000000000
  0.749369423754  0.208641798251  0.000000000000  0.000000000000  0.000000000000
  0.664281916249  0.323088878624  1.000000000000  0.000000000000  0.000000000000
  0.020862422369 -0.661173108788  0.000000000000  1.000000000000  0.000000000000
 -0.007574389216 -0.471653895650  0.000000000000  0.000000000000  1.000000000000
* p-type functions
    6    4
        289.29932500
         66.57379870
         19.89051980
          2.37378808
       7871.15308e-4
          0.09800000
 -0.017848488164  0.000000000000  0.000000000000  0.000000000000
 -0.105062441437  0.000000000000  0.000000000000  0.000000000000
 -0.247455274890  0.000000000000  0.000000000000  0.000000000000
  0.622707156780  1.000000000000  0.000000000000  0.000000000000
  0.470315082218  0.000000000000  1.000000000000  0.000000000000
  0.000000000000  0.000000000000  0.000000000000  1.000000000000
* d-type functions
    6    4
         38.91054330
         10.75457590
          3.59224013
          1.20398778
          0.36189186
          0.11330000
  0.028022157082  0.000000000000  0.000000000000  0.000000000000
  0.148933180577  0.000000000000  0.000000000000  0.000000000000
  0.367681580213  0.000000000000  0.000000000000  0.000000000000
  0.479797518814  1.000000000000  0.000000000000  0.000000000000
  0.298977312657  0.000000000000  1.000000000000  0.000000000000
  0.033904966222  0.000000000000  0.000000000000  1.000000000000
* f-type functions
    3    1
      45150.39554e-4
      16191.97204e-4
      69335.94257e-5
  0.173785671590
  0.597338080410
  0.392939567570
********************************************************************************
* Core AIMP: FE-NP-(d6s2)5D-[NE]
*
* Local Potential Parameters : (ECP convention)
*                              A(AIMP)=-Zeff*A(ECP)
********************************************************************************
M1
 10
  4.0756700000e5  6.7772700000e4  1.6848200000e4  4.9007650000e3  1.5989700000e3  5.7036800000e2  2.0336300000e2 67.464000000000 28.670600000000 13.074230000000
  0.008707923563  0.009854050812  0.017540017000  0.030396845125  0.050576731562  0.070678396875  0.073970733125  0.140023236875  0.181999935625  0.041252129312
M2
  0
COREREP
 1.0
PROJOP
    1
   16    2
  5.2732733000e2 64.868023000000
     906706.97000000
     135836.13000000
      30913.75500000
       8754.31480000
       2854.60620000
       1029.39650000
        400.23829000
        164.71075000
         70.01751600
         26.39349400
         12.57502700
          5.85031060
          1.97628520
          0.78703843
          0.11246274
        412.43849e-4
  0.000488187207  0.000150436728
  0.001536266690  0.000474705215
  0.004713605670  0.001460751180
  0.014085147900  0.004413090150
  0.041615356700  0.013245007900
  0.113122469000  0.037853333600
  0.253468328000  0.093528526000
  0.390224607000  0.184460688000
  0.294077208000  0.196006148000
  0.051999390700 -0.170926558000
 -0.008131538350 -0.614823203000
  0.003271852480 -0.358625916000
 -0.001054450590 -0.024857668700
  0.000350759578  0.001910103680
 -0.000082853577 -0.000539809424
  0.000038601382  0.000243286827
   11    1
 55.004999000000
       5020.97050000
       1189.87480000
        385.60324000
        146.36388000
         61.28163400
         27.21176100
         12.54573800
          5.86037440
          2.61941880
          1.12812370
          0.45272171
  0.000629862129
  0.003859670990
  0.018875541000
  0.070300335900
  0.192533030000
  0.357653299000
  0.379822829000
  0.156589580000
  0.013961798000
  0.001049301000
  0.000074894799
Spectral Representation Operator
External primitive basis
    3
   16
       4236.42440000
        610.71334400
        133.94926300
         12.60524000
          4.48471479
          2.36196333
       8526.56165e-4
          0.10809161
       3940.64313e-5
     906706.97000000
     135836.13000000
      30913.75500000
       8754.31480000
       1029.39650000
         70.01751600
         26.39349400
   11
        289.29932500
         66.57379870
         19.89051980
          2.37378808
       7871.15308e-4
          0.09800000
       5020.97050000
       1189.87480000
        146.36388000
         27.21176100
          5.86037440
    7
         38.91054330
         10.75457590
          3.59224013
          1.20398778
          0.36189186
          0.11330000
        145.81692200
    3
      45150.39554e-4
      16191.97204e-4
      69335.94257e-5
Exchange
NoPair
End of Spectral Representation Operator


/Co.NP-AIMP.Rakowitz.9s6p6d3f.5s4p4d1f.ECP.17el.
F. Rakowitz, C.M. Marian, L. Seijo. J. Chem. Phys. 111 (1999) 10436-10443. doi:10.1063/1.480398
COBALT (9s,6p,6d,3f) -> [5s,4p,4d,1f]
********************************************************************************
*core [Ne] (9/51/6/3)
*CO-NP-(d7s2)4F-(9/51/6/3)
********************************************************************************
    17.0   3
* s-type functions
    9    5
       4662.38776000
        668.16533800
        146.00566300
         13.66420240
          4.79388342
          2.50966282
       9160.44132e-4
       1177.45223e-4
        423.03522e-4
  0.006766738948  0.001430320070  0.000000000000  0.000000000000  0.000000000000
  0.041743737072  0.008835765838  0.000000000000  0.000000000000  0.000000000000
  0.128581524825  0.027393077015  0.000000000000  0.000000000000  0.000000000000
 -0.545225800049 -0.124802825597  0.000000000000  0.000000000000  0.000000000000
 -0.361568646851 -0.086652029974  0.000000000000  0.000000000000  0.000000000000
  0.766754049412  0.213389456292  0.000000000000  0.000000000000  0.000000000000
  0.637790814602  0.308892121383  1.000000000000  0.000000000000  0.000000000000
  0.019267540835 -0.647014583479  0.000000000000  1.000000000000  0.000000000000
 -0.006840709665 -0.485586705960  0.000000000000  0.000000000000  1.000000000000
* p-type functions
    6    4
        317.50521300
         73.08149340
         21.88772620
          2.62329644
       8683.40919e-4
          0.10500000
 -0.017868725291  0.000000000000  0.000000000000  0.000000000000
 -0.105525330991  0.000000000000  0.000000000000  0.000000000000
 -0.249733157760  0.000000000000  0.000000000000  0.000000000000
  0.624229938718  1.000000000000  0.000000000000  0.000000000000
  0.468992278385  0.000000000000  1.000000000000  0.000000000000
  0.000000000000  0.000000000000  0.000000000000  1.000000000000
* d-type functions
    6    4
         43.11518320
         11.95000490
          3.99623043
          1.33529884
       3972.47355e-4
          0.12190000
  0.028360415343  0.000000000000  0.000000000000  0.000000000000
  0.151458232776  0.000000000000  0.000000000000  0.000000000000
  0.370737281926  0.000000000000  0.000000000000  0.000000000000
  0.477541252400  1.000000000000  0.000000000000  0.000000000000
  0.298235507889  0.000000000000  1.000000000000  0.000000000000
  0.035275010760  0.000000000000  0.000000000000  1.000000000000
* f-type functions
    3    1
      55741.22906e-4
      19990.08894e-4
      85599.92909e-5
  0.173785671590
  0.597338080410
  0.392939567570
********************************************************************************
* Core AIMP: CO-NP-(d7s2)4F-[NE]
*
* Local Potential Parameters : (ECP convention)
*                              A(AIMP)=-Zeff*A(ECP)
********************************************************************************
M1
 10
  4.1607400000e5  7.0387800000e4  1.7709700000e4  5.1939300000e3  1.7061300000e3  6.1170200000e2  2.1881800000e2 73.036800000000 31.190700000000 14.259900000000
  0.008432650412  0.009405588529  0.016696041118  0.028834336824  0.047782483471  0.066481415882  0.069639118824  0.132349582353  0.170500415294  0.038113661529
M2
  0
COREREP
 1.0
PROJOP
    1
   16    2
  5.7151563000e2 70.928414000000
     976441.49000000
     146283.40000000
      33291.37700000
       9427.62970000
       3074.17060000
       1108.59370000
        431.06577000
        177.43445000
         75.45392500
         28.37069100
         13.54927600
          6.32005200
          2.15965700
          0.85749700
          0.12099800
          0.04376500
  0.000512217012 -0.000158850369
  0.001601495010 -0.000498079738
  0.004869180320 -0.001518889890
  0.014396264100 -0.004541950880
  0.042135611100 -0.013504338900
  0.113868180000 -0.038397888800
  0.254268541000 -0.094543022600
  0.390182991000 -0.186139499000
  0.292836901000 -0.195760519000
  0.051345765200  0.179837149000
 -0.008315413130  0.617217887000
  0.003327932010  0.349443558000
 -0.001072586300  0.023800864900
  0.000352140991 -0.001625749890
 -0.000081401084  0.000477625258
  0.000037703462 -0.000213397089
   11    1
 60.469725000000
       5468.58430000
       1295.93270000
        420.01172000
        159.47474000
         66.80670300
         29.69482200
         13.70911400
          6.40892100
          2.87080200
          1.23727500
          0.49602500
  0.000647216916
  0.003892830870
  0.018919463900
  0.070367737500
  0.192878209000
  0.358519788000
  0.379355458000
  0.155243189000
  0.013798609900
  0.001128044490
  0.000090489471
Spectral Representation Operator
External primitive basis
    3
   16
       4662.38776000
        668.16533800
        146.00566300
         13.66420240
          4.79388342
          2.50966282
       9160.44132e-4
       1177.45223e-4
        423.03522e-4
     976441.49000000
     146283.40000000
      33291.37700000
       9427.62970000
       1108.59370000
         75.45392500
         28.37069100
   11
        317.50521300
         73.08149340
         21.88772620
          2.62329644
       8683.40919e-4
          0.10500000
       5468.58430000
       1295.93270000
        159.47474000
         29.69482200
          6.40892100
    7
         43.11518320
         11.95000490
          3.99623043
          1.33529884
       3972.47355e-4
          0.12190000
        159.62855500
    3
      55741.22906e-4
      19990.08894e-4
      85599.92909e-5
Exchange
NoPair
End of Spectral Representation Operator

/Ni.NP-AIMP.Rakowitz.9s6p6d3f.5s4p4d1f.ECP.18el.
F. Rakowitz, C.M. Marian, L. Seijo. J. Chem. Phys. 111 (1999) 10436-10443. doi:10.1063/1.480398
NICKEL (9s,6p,6d,3f) -> [5s,4p,4d,1f]
********************************************************************************
*core [Mg] (9/51/6/3)
*NI-NP-(d8s2)3F-(9/51/6/3)
********************************************************************************
    18.0   3
* s-type functions
    9    5
       5089.64646000
        725.75110200
        158.29039500
         14.85257060
          5.35630309
          2.68841156
       9964.02768e-4
       1263.51512e-4
       4482.61888e-5
  0.006825090000  0.001563130000  0.000000000000  0.000000000000  0.000000000000
  0.041886470000  0.009605780000  0.000000000000  0.000000000000  0.000000000000
  0.129320470000  0.029831850000  0.000000000000  0.000000000000  0.000000000000
 -0.547246590000 -0.134916860000  0.000000000000  0.000000000000  0.000000000000
 -0.329364640000 -0.084412610000  0.000000000000  0.000000000000  0.000000000000
  0.742392990000  0.221190210000  0.000000000000  0.000000000000  0.000000000000
  0.623954350000  0.312499150000  1.000000000000  0.000000000000  0.000000000000
  0.032069990000 -0.639640300000  0.000000000000  1.000000000000  0.000000000000
  0.002821880000 -0.490686530000  0.000000000000  0.000000000000  1.000000000000
* p-type functions
    6    4
        346.84203800
         79.85038550
         23.97131840
          2.88500165
       9532.55566e-4
          0.11100000
 -0.017905520000  0.000000000000  0.000000000000  0.000000000000
 -0.105976290000  0.000000000000  0.000000000000  0.000000000000
 -0.251668590000  0.000000000000  0.000000000000  0.000000000000
  0.625278130000  1.000000000000  0.000000000000  0.000000000000
  0.468174660000  0.000000000000  1.000000000000  0.000000000000
  0.000000000000  0.000000000000  0.000000000000  1.000000000000
* d-type functions
    6    4
         47.29872870
         13.15250580
          4.40653743
          1.46981906
       4338.97325e-4
          0.13160000
  0.028868510000  0.000000000000  0.000000000000  0.000000000000
  0.154272500000  0.000000000000  0.000000000000  0.000000000000
  0.373739550000  0.000000000000  0.000000000000  0.000000000000
  0.475283970000  1.000000000000  0.000000000000  0.000000000000
  0.296551340000  0.000000000000  1.000000000000  0.000000000000
  0.036237460000  0.000000000000  0.000000000000  1.000000000000
* f-type functions
    3    1
      67446.88716e-4
      24188.00762e-4
      10357.59142e-4
  0.173785671590
  0.597338080410
  0.392939567570
********************************************************************************
* Core AIMP: NI-NP-(d8s2)3F-[NE]
*
* Local Potential Parameters : (ECP convention)
*                              A(AIMP)=-Zeff*A(ECP)
********************************************************************************
M1
 10
  4.1810700000e5  7.1736400000e4  1.8293700000e4  5.4216600000e3  1.7952200000e3  6.4784800000e2  2.3252500000e2 78.319700000000 33.679100000000 15.451230000000
  0.008253925889  0.009088406944  0.016024321111  0.027603891333  0.045472860722  0.062781511111  0.065759431111  0.125964145000  0.159637752222  0.034969309722
M2
  0
COREREP
 1.0
PROJOP
    1
   16    2
  6.1752142000e2 77.240217000000
    1048516.60000000
     157081.28000000
      35748.78600000
      10123.53900000
       3301.10350000
       1190.45020000
        462.93093000
        190.58943000
         81.07763100
         30.41230500
         14.55088500
          6.80134800
          2.34832200
          0.92972800
          0.12949200
          0.04623100
  0.000536961748 -0.000167525341
  0.001668573090 -0.000522119982
  0.005029235980 -0.001578544010
  0.014718217900 -0.004674066220
  0.042678238800 -0.013768782000
  0.114645520000 -0.038945048100
  0.255092139000 -0.095539054300
  0.390122979000 -0.187743431000
  0.291540719000 -0.195347521000
  0.050674493800  0.188778391000
 -0.008465005670  0.619329952000
  0.003373908490  0.340441521000
 -0.001087706300  0.022743550100
  0.000352792829 -0.001364546800
 -0.000079894288  0.000421431541
  0.000036813465 -0.000186745201
   11    1
 66.164738000000
       5933.62550000
       1406.11900000
        455.75999000
        173.09765000
         72.54892100
         32.27677000
         14.91925500
          6.97923400
          3.13179100
          1.35040100
          0.54082600
  0.000665707974
  0.003931224720
  0.018982009100
  0.070481735400
  0.193283611000
  0.359368082000
  0.378831142000
  0.153932831000
  0.013645401100
  0.001199166210
  0.000104006761
Spectral Representation Operator
External primitive basis
    3
   16
       5089.64646000
        725.75110200
        158.29039500
         14.85257060
          5.35630309
          2.68841156
       9964.02768e-4
       1263.51512e-4
       4482.61888e-5
    1048516.58000000
     157081.27700000
      35748.78600000
      10123.53880000
       1190.45023000
         81.07763100
         30.41230500
   11
        346.84203800
         79.85038550
         23.97131840
          2.88500165
       9532.55566e-4
          0.11100000
       5933.62549000
       1406.11899000
        173.09765400
         32.27677000
          6.97923400
    7
         47.29872870
         13.15250580
          4.40653743
          1.46981906
       4338.97325e-4
          0.13160000
        174.16515800
    3
          6.74468900
          2.41880070
          1.03575920
Exchange
NoPair
End of Spectral Representation Operator

/Cu.NP-AIMP.Rakowitz.9s6p6d3f.5s4p4d1f.ECP.19el.
F. Rakowitz, C.M. Marian, L. Seijo. J. Chem. Phys. 111 (1999) 10436-10443. doi:10.1063/1.480398
COPPER (9s,6p,6d,3f) -> [5s,4p,4d,1f]
********************************************************************************
*core [Ne] (9/51/6/3)
*CU-NP-(d10s1)2S-(9/51/6/3)
********************************************************************************
    19.0   3
* s-type functions
    9    5
       5598.91811000
        793.28464400
        171.85637600
         16.07561560
          6.07091922
          2.80024364
          1.06758732
       1351.74153e-4
        473.12243e-4
  0.006831131382  0.001211878407  0.000000000000  0.000000000000  0.000000000000
  0.041843408871  0.007428417888  0.000000000000  0.000000000000  0.000000000000
  0.130569092544  0.023355107025  0.000000000000  0.000000000000  0.000000000000
 -0.551534491301 -0.106548498374  0.000000000000  0.000000000000  0.000000000000
 -0.277667098727 -0.048844581139  0.000000000000  0.000000000000  0.000000000000
  0.707034827960  0.152696881714  0.000000000000  0.000000000000  0.000000000000
  0.617475087992  0.259711194491  1.000000000000  0.000000000000  0.000000000000
  0.024876242148 -0.386676158271  0.000000000000  1.000000000000  0.000000000000
 -0.008819718836 -0.718111392220  0.000000000000  0.000000000000  1.000000000000
* p-type functions
    6    4
        378.12173300
         87.02380010
         26.16746250
          3.15565305
          1.04067815
          0.11700000
 -0.017774701316  0.000000000000  0.000000000000  0.000000000000
 -0.105537632747  0.000000000000  0.000000000000  0.000000000000
 -0.251439934546  0.000000000000  0.000000000000  0.000000000000
  0.616869262087  1.000000000000  0.000000000000  0.000000000000
  0.476992428296  0.000000000000  1.000000000000  0.000000000000
  0.000000000000  0.000000000000  0.000000000000  1.000000000000
* d-type functions
    6    4
         51.71110310
         14.42072630
          4.83967214
          1.61235383
       4728.07013e-4
          0.14910000
  0.027940052851  0.000000000000  0.000000000000  0.000000000000
  0.149399427325  0.000000000000  0.000000000000  0.000000000000
  0.358409224544  0.000000000000  0.000000000000  0.000000000000
  0.456123952812  1.000000000000  0.000000000000  0.000000000000
  0.323405376465  0.000000000000  1.000000000000  0.000000000000
  0.083392940099  0.000000000000  0.000000000000  1.000000000000
* f-type functions
    3    1
      80267.36984e-4
      28785.72807e-4
      12326.38979e-4
  0.173785671590
  0.597338080410
  0.392939567570
********************************************************************************
* Core AIMP: CU-NP-(d10s1)2S-[NE]
*
* Local Potential Parameters : (ECP convention)
*                              A(AIMP)=-Zeff*A(ECP)
********************************************************************************
M1
 10
  4.2769300000e5  7.4760300000e4  1.9305800000e4  5.7641100000e3  1.9179100000e3  6.9401400000e2  2.4979000000e2 84.557500000000 36.480700000000 16.753130000000
  0.008011103105  0.008682253474  0.015276311053  0.026257284211  0.043180338947  0.059468622105  0.062275402632  0.119504946316  0.150874160000  0.032785368158
M2
  0
COREREP
 1.0
PROJOP
    1
   16    2
  6.6489942000e2 83.304687000000
    1088937.30000000
     163139.06000000
      37127.57300000
      10514.03700000
       3428.51170000
       1236.49130000
        480.95139000
        198.13309000
         84.32648700
         30.83465000
         14.69373000
          6.88524980
          2.44265880
          0.94322568
          0.10796813
        390.38832e-4
  0.000575832806 -0.000180673090
  0.001782081190 -0.000560992450
  0.005340411560 -0.001685814300
  0.015519805900 -0.004963933800
  0.044672010700 -0.014503589000
  0.119052149000 -0.040863542000
  0.261999978000 -0.099161552100
  0.392008207000 -0.193073900000
  0.281577578000 -0.188113590000
  0.045010523700  0.238855300000
 -0.008780968640  0.626184360000
  0.003499270170  0.291617430000
 -0.001125357090  0.016734216000
  0.000339334098 -0.000340249670
 -0.000069623880  0.000213453510
  0.000034030421 -0.000100878370
   11    1
 71.598811000000
       6272.26300000
       1486.37570000
        481.75797000
        182.97636000
         76.69030100
         34.11547600
         15.76217100
          7.34583240
          3.29615880
          1.41111340
          0.55582444
  0.000706912251
  0.004116311610
  0.019746723000
  0.072981280100
  0.198896680000
  0.365480270000
  0.374935300000
  0.144238270000
  0.011584022000
  0.001365510800
  0.000133055670
Spectral Representation Operator
External primitive basis
    3
   16
       5598.91811000
        793.28464400
        171.85637600
         16.07561560
          6.07091922
          2.80024364
          1.06758732
       1351.74153e-4
        473.12243e-4
    1088937.30000000
     163139.06000000
      37127.57300000
      10514.03700000
       1236.49130000
         84.32648700
         30.83465000
   11
        378.12173300
         87.02380010
         26.16746250
          3.15565305
          1.04067815
          0.11700000
       6272.26300000
       1486.37570000
        182.97636000
         34.11547600
          7.34583240
    7
         51.71110310
         14.42072630
          4.83967214
          1.61235383
       4728.07013e-4
          0.14910000
        169.31748600
    3
      80267.36984e-4
      28785.72807e-4
      12326.38979e-4
Exchange
NoPair
End of Spectral Representation Operator

/Zn.NP-AIMP.Rakowitz.9s6p6d3f.5s4p4d1f.ECP.20el.
F. Rakowitz, C.M. Marian, L. Seijo. J. Chem. Phys. 111 (1999) 10436-10443. doi:10.1063/1.480398
ZINC (9s,6p,6d,3f) -> [5s,4p,4d,1f]
********************************************************************************
*core [Ne] (9/51/6/3)
*ZN-NP-(d10s2)1S-(9/51/6/3)
********************************************************************************
    20.0   3
* s-type functions
    9    5
       6050.71748000
        857.21248200
        185.30817300
         17.28532200
          6.11606493
          3.11298368
          1.16011639
          0.14278049
       4940.96517e-5
  0.006968481691  0.001406432777  0.000000000000  0.000000000000  0.000000000000
  0.042292684981  0.008549257143  0.000000000000  0.000000000000  0.000000000000
  0.132269844528  0.026902837795  0.000000000000  0.000000000000  0.000000000000
 -0.566621158100 -0.123912861926  0.000000000000  0.000000000000  0.000000000000
 -0.313490812806 -0.071799979450  0.000000000000  0.000000000000  0.000000000000
  0.760368578796  0.205644941166  0.000000000000  0.000000000000  0.000000000000
  0.613344113150  0.282642925860  1.000000000000  0.000000000000  0.000000000000
  0.019056502214 -0.632406349380  0.000000000000  1.000000000000  0.000000000000
 -0.006847073187 -0.494972443070  0.000000000000  0.000000000000  1.000000000000
* p-type functions
    6    4
        410.49441700
         94.47335590
         28.45851260
          3.43942986
          1.13180243
          0.12300000
 -0.017919359609  0.000000000000  0.000000000000  0.000000000000
 -0.106485479804  0.000000000000  0.000000000000  0.000000000000
 -0.254874915876  0.000000000000  0.000000000000  0.000000000000
  0.627349986390  1.000000000000  0.000000000000  0.000000000000
  0.466494972684  0.000000000000  1.000000000000  0.000000000000
  0.000000000000  0.000000000000  0.000000000000  1.000000000000
* d-type functions
    6    4
         56.35081000
         15.75820370
          5.29778926
          1.76437521
       5152.59102e-4
          0.15630000
  0.029626547647  0.000000000000  0.000000000000  0.000000000000
  0.158588529788  0.000000000000  0.000000000000  0.000000000000
  0.378242722051  0.000000000000  0.000000000000  0.000000000000
  0.471911617944  1.000000000000  0.000000000000  0.000000000000
  0.293209647152  0.000000000000  1.000000000000  0.000000000000
  0.037448975440  0.000000000000  0.000000000000  1.000000000000
* f-type functions
    3    1
      94202.67711e-4
      33783.25031e-4
      14466.38802e-4
  0.173785671590
  0.597338080410
  0.392939567570
********************************************************************************
* Core AIMP: ZN-NP-(d10s2)1S-[NE]
*
* Local Potential Parameters : (ECP convention)
*                              A(AIMP)=-Zeff*A(ECP)
********************************************************************************
M1
 10
  4.3649500000e5  7.7562900000e4  2.0214900000e4  6.0641300000e3  2.0287700000e3  7.3773700000e2  2.6610300000e2 90.511000000000 39.225800000000 18.061780000000
  0.007798679050  0.008338640800  0.014685366350  0.025174426150  0.041182581800  0.056440140500  0.059245510000  0.114239309500  0.142410600500  0.030484745050
M2
  0
COREREP
 1.0
PROJOP
    1
   16    2
  7.1503779000e2 90.648886000000
    1199478.90000000
     179697.65000000
      40895.87800000
      11581.13500000
       3776.42260000
       1361.90750000
        529.68448000
        218.15748000
         92.87265400
         34.68115100
         16.63109200
          7.79516400
          2.74039700
          1.07889200
          0.14607200
          0.05092600
  0.000588746167 -0.000185722979
  0.001808634790 -0.000572366697
  0.005363406170 -0.001702791490
  0.015395473900 -0.004949054170
  0.043832869800 -0.014316067900
  0.116301549000 -0.040056579800
  0.256818779000 -0.097496726500
  0.389947558000 -0.190767309000
  0.288769709000 -0.194039079000
  0.049278175700  0.206810099000
 -0.008675074750  0.622794816000
  0.003438771880  0.322841538000
 -0.001110063490  0.020615346900
  0.000352024388 -0.000897296995
 -0.000076625188  0.000323042498
  0.000035012370 -0.000140959879
   11    1
 78.269749000000
       6916.44680000
       1638.98520000
        531.31141000
        201.89326000
         84.69062000
         37.74000000
         17.48101200
          8.18572800
          3.68276000
          1.58856200
          0.63498700
  0.000705821935
  0.004021384030
  0.019152174100
  0.070816433500
  0.194216481000
  0.360987182000
  0.377673003000
  0.151436781000
  0.013358293100
  0.001319107810
  0.000126880791
Spectral Representation Operator
External primitive basis
    3
   16
       6050.71748000
        857.21248200
        185.30817300
         17.28532200
          6.11606493
          3.11298368
          1.16011639
          0.14278049
       4940.96517e-5
    1199478.90000000
     179697.65000000
      40895.87800000
      11581.13500000
       1361.90750000
         92.87265400
         34.68115100
   11
        410.49441700
         94.47335590
         28.45851260
          3.43942986
          1.13180243
          0.12300000
       6916.44680000
       1638.98520000
        201.89326000
         37.74000000
          8.18572800
    7
         56.35081000
         15.75820370
          5.29778926
          1.76437521
       5152.59102e-4
          0.15630000
        205.67236100
    3
      94202.67711e-4
      33783.25031e-4
      14466.38802e-4
Exchange
NoPair
End of Spectral Representation Operator

********************************************************************************
*         C.3.2.2. Second Series Transition Metal Elements (core [Ar,3d])
********************************************************************************
*  - 2nd order Douglas-Kroll-Hess
*  - p polarization functions:
*    S. Huzinaga (Editor), J. Andzelm, M. Klobukowski, E. Radzio-Andzelm, Y. Sakai, H. Tatewaki.
*    "Gaussian Basis Sets for Molecular Calculations" (Elsevier, Amsterdam, 1984).
*  - f polarization functions:
*       - Slater exponents:
*         S.P. Walch, Ch.W. Bauschlicher, Jr., C.J. Nelin. J. Chem. Phys. 79 (1983) 3600-3602. doi:10.1063/1.446183
*       - 3-GTO expansion:
*         R.F. Stewart. J. Chem. Phys. 52 (1970) 431-438. doi:10.1063/1.1672702
********************************************************************************

/Y.NP-AIMP.Rakowitz.11s8p7d3f.5s4p4d1f.ECP.11el.
F. Rakowitz, C.M. Marian, L. Seijo. J. Chem. Phys. 111 (1999) 10436-10443. doi:10.1063/1.480398
YTTRIUM (11s,8p,7d,3f) -> [5s,4p,4d,1f]
********************************************************************************
*core [Ar,3d] (A1/71/7/3)
*Y-NP-(d1s2)2D-(A1/71/7/3)
********************************************************************************
    11.0   3
* s-type functions
   11    5
      11780.26620000
       1581.69839000
        332.97441300
         32.46506950
         14.58111210
          5.54182585
          2.71820263
       9071.97762e-4
       3971.47199e-4
       6287.18866e-5
          0.02545032
 -0.002980517699 -0.000860950591  0.000000000000  0.000000000000  0.000000000000
 -0.017207789632 -0.004973191765  0.000000000000  0.000000000000  0.000000000000
 -0.054554778454 -0.015780533610  0.000000000000  0.000000000000  0.000000000000
  0.239632484566  0.070223779223  0.000000000000  0.000000000000  0.000000000000
  0.111261269410  0.033201025812  0.000000000000  0.000000000000  0.000000000000
 -0.424284982005 -0.132298410399  0.000000000000  0.000000000000  0.000000000000
 -0.553673119977 -0.184096454796  0.000000000000  0.000000000000  0.000000000000
  0.585555780341  0.242771954191  0.000000000000  0.000000000000  0.000000000000
  0.727270965599  0.456922179131  1.000000000000  0.000000000000  0.000000000000
  0.039406429245 -0.782894961763  0.000000000000  1.000000000000  0.000000000000
 -0.006100130483 -0.395117638745  0.000000000000  0.000000000000  1.000000000000
* p-type functions
    8    4
        770.31806200
        176.68004600
         54.05224290
          8.30517594
          4.34961391
       8203.00219e-4
          0.29882080
          0.05600000
  0.006625761038  0.000000000000  0.000000000000  0.000000000000
  0.039522426997  0.000000000000  0.000000000000  0.000000000000
  0.097129707121  0.000000000000  0.000000000000  0.000000000000
 -0.193071793196  0.000000000000  0.000000000000  0.000000000000
 -0.233420932588  0.000000000000  0.000000000000  0.000000000000
  0.665111040106  1.000000000000  0.000000000000  0.000000000000
  0.451474330031  0.000000000000  1.000000000000  0.000000000000
  0.000000000000  0.000000000000  0.000000000000  1.000000000000
* d-type functions
    7    4
         79.67964610
         22.28106600
          7.26689490
       8546.45719e-4
       2869.65621e-4
       8877.81189e-5
          0.03160000
 -0.012882375485  0.000000000000  0.000000000000  0.000000000000
 -0.061089913159  0.000000000000  0.000000000000  0.000000000000
 -0.106880911741  0.000000000000  0.000000000000  0.000000000000
  0.287412237769  0.000000000000  0.000000000000  0.000000000000
  0.508398301252  1.000000000000  0.000000000000  0.000000000000
  0.407513832128  0.000000000000  1.000000000000  0.000000000000
  0.050064170176  0.000000000000  0.000000000000  1.000000000000
* f-type functions
    3    1
      64436.86079e-5
      23108.54281e-5
      98953.51803e-6
  0.173785671590
  0.597338080410
  0.392939567570
********************************************************************************
* Core AIMP: Y-NP-(d1s2)2D-[AR,3D]
*
* Local Potential Parameters : (ECP convention)
*                              A(AIMP)=-Zeff*A(ECP)
********************************************************************************
M1
 13
  5.3714700000e5  1.1240600000e5  3.3192300000e4  1.0945300000e4  3.9291000000e3  1.5098800000e3  5.9512900000e2  2.2577900000e2 98.259000000000 43.739700000000 14.694300000000
  7.176250000000  3.270880000000
  0.021988664636  0.020249713455  0.033942238818  0.055584269364  0.087966784455  0.124410659091  0.145530209091  0.224270210909  0.390872927273  0.224080080000  0.578598791818
  0.556716339091  0.081243657000
M2
  0
COREREP
 1.0
PROJOP
    2
   20    3
  1.2589869000e3  1.7769830000e2 30.616990000000
    7941148.20000000
    1189204.80000000
     270633.04000000
      76653.79400000
      25006.02700000
       9026.65170000
       3520.11920000
       1459.51320000
        636.06241000
        288.74954000
        134.31388000
         56.19637300
         27.68537600
         13.56121200
          5.73388690
          2.67430100
          0.80344503
          0.35652595
        641.51336e-4
        261.51012e-4
  0.000311855180 -0.000102433330  0.000042343708
  0.000879953040 -0.000289577650  0.000119750469
  0.002294101900 -0.000756641950  0.000312883699
  0.005593552900 -0.001856700300  0.000769020096
  0.013398557000 -0.004477654100  0.001853520690
  0.032083296000 -0.010944945000  0.004554634580
  0.075416532000 -0.026431880000  0.010997827900
  0.163566010000 -0.061766266000  0.026104608900
  0.291809820000 -0.124910540000  0.053339998800
  0.350990610000 -0.199954860000  0.090104831600
  0.205961930000 -0.135391020000  0.062466319700
  0.029364805000  0.294669770000 -0.173844009000
 -0.003844339100  0.595786250000 -0.523070468000
  0.001733176400  0.271794020000 -0.209348159000
 -0.000784220060  0.019226324000  0.714904207000
  0.000311325790 -0.000173632730  0.571858427000
 -0.000108544170  0.000028641860  0.035506801800
  0.000052684680 -0.000067540834 -0.006735157570
 -0.000013846383  0.000009047433  0.001537932290
  0.000006421994 -0.000004251982 -0.000691023577
   14    2
  1.5782606000e2 23.961755000000
      19048.50800000
       4511.79510000
       1464.68810000
        559.08645000
        236.30173000
        107.00728000
         50.67675600
         24.68880500
         11.85371500
          5.68609580
          2.72629300
          1.14338410
          0.50062283
          0.20248548
  0.000544679340 -0.000231122400
  0.002437562300 -0.001037127400
  0.010485605000 -0.004500760800
  0.038549226000 -0.016772495000
  0.115308090000 -0.051910810000
  0.258029260000 -0.121572710000
  0.383246340000 -0.193144630000
  0.296811720000 -0.109383630000
  0.081773836000  0.250431750000
  0.003252466800  0.536492470000
  0.001293622900  0.327415660000
 -0.000377737230  0.039214017000
  0.000161654290 -0.002102969500
 -0.000047030998  0.000582213380
   11    1
 12.968845000000
        716.58030000
        215.63655000
         83.44281100
         36.16740500
         16.73513200
          7.91633830
          3.75041720
          1.72067980
          0.65997856
          0.24025127
        801.22534e-4
  0.000946434097
  0.007711432870
  0.037285906900
  0.120306910000
  0.261245879000
  0.371283779000
  0.326621979000
  0.133162040000
  0.012781112000
 -0.000647115858
  0.000243066169
Spectral Representation Operator
External primitive basis
    3
   20
      11780.26620000
       1581.69839000
        332.97441300
         32.46506950
         14.58111210
          5.54182585
          2.71820263
       9071.97762e-4
       3971.47199e-4
       6287.18866e-5
          0.02545032
    7941148.20000000
    1189204.80000000
     270633.04000000
      76653.79400000
      25006.02700000
       3520.11920000
        636.06241000
        134.31388000
         56.19637300
   14
        770.31806200
        176.68004600
         54.05224290
          8.30517594
          4.34961391
       8203.00219e-4
          0.29882080
          0.05600000
      19048.50800000
       4511.79510000
       1464.68810000
        107.00728000
         24.68880500
          2.72629300
   10
         79.67964610
         22.28106600
          7.26689490
       8546.45719e-4
       2869.65621e-4
       8877.81189e-5
          0.03160000
        716.58030000
        215.63655000
          3.75041720
    3
      64436.86079e-5
      23108.54281e-5
      98953.51803e-6
Exchange
NoPair
End of Spectral Representation Operator

/Zr.NP-AIMP.Rakowitz.11s8p7d3f.5s4p4d1f.ECP.12el.
F. Rakowitz, C.M. Marian, L. Seijo. J. Chem. Phys. 111 (1999) 10436-10443. doi:10.1063/1.480398
ZIRCONIUM (11s,8p,7d,3f) -> [5s,4p,4d,1f]
********************************************************************************
*core [Ar,3d] (A1/71/7/3)
*ZR-NP-(d2s2)3F-(A1/71/7/3)
********************************************************************************
    12.0   3
* s-type functions
   11    5
      12534.54140000
       1672.80424000
        352.64973900
         33.94089520
         13.79577480
          6.15773318
          2.80085901
          1.12319133
       4517.29203e-4
       6573.37006e-5
       2695.83818e-5
 -0.003129635427 -0.000876250621  0.000000000000  0.000000000000  0.000000000000
 -0.017920843985 -0.005019977914  0.000000000000  0.000000000000  0.000000000000
 -0.056446402072 -0.015829963843  0.000000000000  0.000000000000  0.000000000000
  0.259539038142  0.073937880228  0.000000000000  0.000000000000  0.000000000000
  0.128111741680  0.036657985357  0.000000000000  0.000000000000  0.000000000000
 -0.465000319218 -0.139078118087  0.000000000000  0.000000000000  0.000000000000
 -0.632023198180 -0.210972320631  0.000000000000  0.000000000000  0.000000000000
  0.612885939595  0.252646487126  0.000000000000  0.000000000000  0.000000000000
  0.781719994261  0.453070909413  1.000000000000  0.000000000000  0.000000000000
  0.033829315940 -0.808455232640  0.000000000000  1.000000000000  0.000000000000
 -0.007367788721 -0.356603838558  0.000000000000  0.000000000000  1.000000000000
* p-type functions
    8    4
        820.16840300
        187.92579900
         57.51190710
          8.88077680
          4.75270131
       9105.25377e-4
       3273.17643e-4
          0.05900000
  0.006909138688  0.000000000000  0.000000000000  0.000000000000
  0.041201354316  0.000000000000  0.000000000000  0.000000000000
  0.101625040619  0.000000000000  0.000000000000  0.000000000000
 -0.200348794313  0.000000000000  0.000000000000  0.000000000000
 -0.242107363119  0.000000000000  0.000000000000  0.000000000000
  0.689258331984  1.000000000000  0.000000000000  0.000000000000
  0.431178680511  0.000000000000  1.000000000000  0.000000000000
  0.000000000000  0.000000000000  0.000000000000  1.000000000000
* d-type functions
    7    4
         87.47660790
         24.54251730
          8.06862451
       9677.73776e-4
       3209.84125e-4
       9648.82155e-5
          0.03820000
 -0.015090675604  0.000000000000  0.000000000000  0.000000000000
 -0.072907937432  0.000000000000  0.000000000000  0.000000000000
 -0.129517690678  0.000000000000  0.000000000000  0.000000000000
  0.363205427407  0.000000000000  0.000000000000  0.000000000000
  0.560708724710  1.000000000000  0.000000000000  0.000000000000
  0.293799166408  0.000000000000  1.000000000000  0.000000000000
  0.000612551542  0.000000000000  0.000000000000  1.000000000000
* f-type functions
    3    1
      10426.74528e-4
      37392.71074e-5
      16012.00174e-5
  0.173785671590
  0.597338080410
  0.392939567570
********************************************************************************
* Core AIMP: ZR-NP-(d2s2)3F-[AR,3D]
*
* Local Potential Parameters : (ECP convention)
*                              A(AIMP)=-Zeff*A(ECP)
********************************************************************************
M1
 13
  5.5336400000e5  1.1873100000e5  3.5734400000e4  1.1942800000e4  4.3267200000e3  1.6731000000e3  6.6562900000e2  2.5402200000e2  1.0967500000e2 49.942700000000 16.275500000000
  7.999010000000  3.696700000000
  0.020389661667  0.018331944750  0.030533984417  0.049791303833  0.078678955333  0.111942713333  0.131751853333  0.196292890833  0.354150546667  0.218259602500  0.512037153333
  0.531135804167  0.080036917917
M2
  0
COREREP
 1.0
PROJOP
    2
   20    3
  1.3297840000e3  1.8955888000e2 33.366083000000
    8442591.80000000
    1264281.30000000
     287717.27000000
      81492.87900000
      26584.71000000
       9596.52460000
       3742.33040000
       1551.62420000
        676.17760000
        306.92164000
        142.74005000
         59.87214100
         29.57709700
         14.51881700
          6.15787320
          2.90091210
          0.90108419
          0.39968930
        720.48349e-4
        287.80689e-4
  0.000322471121 -0.000106358041 -0.000044310291
  0.000907042111 -0.000299732172 -0.000124920900
  0.002354028600 -0.000779690144 -0.000324944610
  0.005708416110 -0.001902922710 -0.000794358851
  0.013578756000 -0.004558099520 -0.001901709600
  0.032268779100 -0.011057561100 -0.004637983010
  0.075334114100 -0.026524017100 -0.011123714000
  0.162746950000 -0.061705352300 -0.026288200000
  0.290304930000 -0.124622881000 -0.053635854100
  0.350802431000 -0.199776801000 -0.090743642100
  0.208027480000 -0.136986641000 -0.063658994100
  0.030264282000  0.289339811000  0.172224740000
 -0.003944276210  0.594767593000  0.525472771000
  0.001786901700  0.277439351000  0.218657600000
 -0.000818092821  0.020127124100 -0.715127361000
  0.000333282751 -0.000300898852 -0.575242401000
 -0.000116579240  0.000036017361 -0.036997990100
  0.000055075664 -0.000073209759  0.006529804110
 -0.000014048602  0.000009511131 -0.001469114600
  0.000006407518 -0.000004365130  0.000648438001
   14    2
  1.6866074000e2 26.341710000000
      20443.15800000
       4841.96380000
       1571.90640000
        600.09943000
        253.70521000
        114.95163000
         54.48893600
         26.58473200
         12.81407000
          6.17636260
          2.98317960
          1.27234470
          0.56140671
          0.22769048
  0.000553669747 -0.000237388822
  0.002432962190 -0.001046181510
  0.010351232900 -0.004489508740
  0.037865296800 -0.016649008200
  0.113287309000 -0.051514537500
  0.254656059000 -0.121224751000
  0.381689228000 -0.194254442000
  0.300520198000 -0.114653391000
  0.085317628500  0.243768322000
  0.003649050780  0.537904845000
  0.001297162090  0.331158513000
 -0.000395157408  0.040452239400
  0.000160711139 -0.001879302020
 -0.000048176431  0.000568326055
   11    1
 14.781747000000
        745.69129000
        224.43078000
         86.84047500
         37.64104500
         17.41336600
          8.23233350
          3.90580500
          1.80171300
          0.73317421
          0.28250004
          0.09946416
  0.001008424000
  0.008173232440
  0.039365935200
  0.126363381000
  0.271113891000
  0.378243792000
  0.316671791000
  0.115531940000
  0.009595216240
 -0.000021178953
  0.000083023120
Spectral Representation Operator
External primitive basis
    3
   20
      12534.54140000
       1672.80424000
        352.64973900
         33.94089520
         13.79577480
          6.15773318
          2.80085901
          1.12319133
       4517.29203e-4
       6573.37006e-5
       2695.83818e-5
    8442591.80000000
    1264281.30000000
     287717.27000000
      81492.87900000
      26584.71000000
       3742.33040000
        676.17760000
        142.74005000
         59.87214100
   14
        820.16840300
        187.92579900
         57.51190710
          8.88077680
          4.75270131
       9105.25377e-4
       3273.17643e-4
          0.05900000
      20443.15800000
       4841.96380000
       1571.90640000
        114.95163000
[...]
  0.000196299981 -0.004033699915  0.001439999966 -0.114395194348 -0.666840715755
 -0.000088399991  0.001805699962 -0.000768299982  0.006318599688 -1.019181024080
  0.000042199996 -0.000860199982  0.000308099993 -0.003525799826 -0.119557202825
 -0.000027099997  0.000551999988 -0.000193399995  0.002163899893  0.023165800547
  0.000008799999 -0.000180299996  0.000065899998 -0.000670499967 -0.005711000135
 -0.000001600000  0.000032299999 -0.000011600000  0.000122399994  0.000790000019
  0.000000600000 -0.000011500000  0.000004200000 -0.000043799998 -0.000274100006
   26    4
  1.7866477600e3  4.6830624000e2  1.2339554000e2 26.470290000000
  370823890.00000000
   55960854.00000000
   12078576.00000000
    3116104.50000000
     306639.62000000
     920718.16000000
     111343.65000000
      43139.10100000
      17688.12900000
       7644.47660000
       3468.45480000
       1647.57370000
        817.37833000
        422.57661000
        225.98536000
        124.10979000
         70.04369700
         39.66171200
         21.34273300
         11.89699500
          6.46228490
          3.41332310
          1.70526420
          0.82660041
          0.38674833
          0.16221806
  0.000014900001 -0.000008000000 -0.000004300000 -0.000002200000
  0.000043200002 -0.000023300001 -0.000012500000 -0.000006400000
  0.000111600006 -0.000060300003 -0.000032399999 -0.000016400000
  0.000270100014 -0.000146100008 -0.000078599997 -0.000039800000
  0.001347800067 -0.000733400039 -0.000394999985 -0.000200300002
  0.000613600031 -0.000332800018 -0.000179099993 -0.000090800001
  0.002990000149 -0.001634900086 -0.000881599966 -0.000447300006
  0.006739500337 -0.003708400196 -0.002003199923 -0.001016500013
  0.015408500770 -0.008560500452 -0.004634899821 -0.002354800029
  0.035369101768 -0.019913501053 -0.010822199582 -0.005499300068
  0.079192503959 -0.045558202408 -0.024889999039 -0.012681600158
  0.162028508099 -0.095988505074 -0.052887797958 -0.026966500335
  0.274028913698 -0.168589108911 -0.093815896378 -0.048090200598
  0.330815916536 -0.199800010561 -0.110318895741 -0.056104300697
  0.233811011687 -0.049843102635 -0.005202299799  0.000395300005
  0.073474803673  0.302046515965  0.265766689740  0.154932101925
  0.006531800327  0.492378526026  0.457014482357  0.264807203290
  0.000250700013  0.282162314914  0.066368997438  0.001966300024
 -0.000187500009  0.049530902618 -0.602628776735 -0.564714307017
  0.000029200001 -0.001868700099 -0.509109280346 -0.471690305861
 -0.000013900001  0.001288900068 -0.098226696208  0.483682306010
  0.000016200001 -0.000768700041 -0.003214499876  0.693429208616
 -0.000004700000  0.000309000016 -0.000352999986  0.187897602335
  0.000002400000 -0.000145400008  0.000082499997  0.006413300080
 -0.000000900000  0.000056400003 -0.000017899999  0.001711100021
  0.000000200000 -0.000014000001  0.000000200000 -0.000401000005
   18    2
  3.7181700000e2 86.460158000000
      33883.21900000
       8462.20610000
       2945.41430000
       1216.58070000
        560.42849000
        280.51156000
        149.61578000
         84.18176800
         48.47018500
         27.10565900
         15.06318700
          8.20715220
          4.35722640
          2.22659410
          1.06480620
          0.39734160
          0.13720912
        433.47259e-4
  0.000213699998  0.000125600001
  0.001346599987  0.000793600009
  0.006528799936  0.003872800043
  0.025909599747  0.015500300171
  0.081288299208  0.049424700544
  0.189727598151  0.116966301287
  0.308064896997  0.186900102057
  0.324976496832  0.164974801815
  0.209983297953 -0.051313500565
  0.064904499367 -0.385738804245
  0.003629799965 -0.466355605132
  0.000950099991 -0.193071802125
 -0.000528599995 -0.021699400239
  0.000169999998 -0.001054300012
 -0.000086499999  0.000032000000
  0.000022300000 -0.000043100000
 -0.000008500000  0.000013600000
  0.000002600000 -0.000003800000
   13    1
 51.130960000000
       2124.28080000
        709.41607000
        300.46753000
        143.66872000
         73.74290200
         39.62764000
         21.69452700
         11.94055500
          6.44173870
          3.30920890
          1.60269060
          0.71663710
          0.28133596
 -0.000394099993
 -0.003469799942
 -0.019055399679
 -0.068875498840
 -0.173113497085
 -0.297296394994
 -0.351268394085
 -0.253228095736
 -0.091621898457
 -0.011338899809
 -0.000306599995
 -0.000020100000
  0.000001400000
Spectral Representation Operator
Mixed valence-core primitive basis
 1.6
Exchange
NoP3
SOC
********************************************************************************
*   Lr.AE.Paulovic.35s26p18d13f.7s5p4d2f.103e-DK3-AE.
********************************************************************************
    3
* s-type functions
   35   11    5
        396.74449e10
        309.984460e9
44219987000.00000000
 8664208900.00000000
 2190531200.00000000
  652910030.00000000
  231719300.00000000
   95239269.00000000
   35362672.00000000
   11834136.00000000
    3867554.90000000
    1303302.50000000
     464607.24000000
     178507.68000000
      74219.30100000
      32794.92800000
      15070.36000000
       7219.95680000
       3605.18380000
       1813.68380000
        903.44198000
        468.13900000
        245.41320000
        115.80165000
         69.77765700
         39.11966200
         20.89673100
         12.13820100
          6.37653710
          3.33531460
          1.34053080
          0.72285688
          0.36247974
        851.77924e-4
        316.72413e-4
  0.000005100000 -0.000002300000  0.000001100000  0.000000600000 -0.000000300000 -0.000000100000  0.000000000000  0.000000000000  0.000000000000  0.000000000000  0.000000000000
  0.000021200000 -0.000009600000  0.000004800000  0.000002500000 -0.000001300000 -0.000000600000  0.000000200000  0.000000000000  0.000000000000  0.000000000000  0.000000000000
  0.000059500000 -0.000026800000  0.000013300000  0.000007100000 -0.000003700000 -0.000001700000  0.000000500000  0.000000000000  0.000000000000  0.000000000000  0.000000000000
  0.000138300000 -0.000062100000  0.000030700000  0.000016300000 -0.000008500000 -0.000003800000  0.000001000000  0.000000000000  0.000000000000  0.000000000000  0.000000000000
  0.000275800000 -0.000123400000  0.000061100000  0.000032400000 -0.000016900000 -0.000007600000  0.000002100000  0.000000000000  0.000000000000  0.000000000000  0.000000000000
  0.000509800000 -0.000227700000  0.000112600000  0.000059800000 -0.000031200000 -0.000014100000  0.000003800000  0.000000000000  0.000000000000  0.000000000000  0.000000000000
  0.000776000000 -0.000345900000  0.000171100000  0.000090900000 -0.000047400000 -0.000021400000  0.000005800000  0.000000000000  0.000000000000  0.000000000000  0.000000000000
  0.001295200000 -0.000576700000  0.000285200000  0.000151400000 -0.000079000000 -0.000035600000  0.000009700000  0.000000000000  0.000000000000  0.000000000000  0.000000000000
  0.002705600000 -0.001203400000  0.000595100000  0.000316000000 -0.000164800000 -0.000074300000  0.000020300000  0.000000000000  0.000000000000  0.000000000000  0.000000000000
  0.005441600000 -0.002419800000  0.001196600000  0.000635300000 -0.000331400000 -0.000149300000  0.000040800000  0.000000000000  0.000000000000  0.000000000000  0.000000000000
  0.010396200000 -0.004629400000  0.002290100000  0.001216100000 -0.000634300000 -0.000285900000  0.000078000000  0.000000000000  0.000000000000  0.000000000000  0.000000000000
  0.018797500000 -0.008404400000  0.004160400000  0.002209500000 -0.001152700000 -0.000519500000  0.000141800000  0.000000000000  0.000000000000  0.000000000000  0.000000000000
  0.032174500000 -0.014500800000  0.007190200000  0.003820400000 -0.001993200000 -0.000898300000  0.000245100000  0.000000000000  0.000000000000  0.000000000000  0.000000000000
  0.051668000000 -0.023603300000  0.011729600000  0.006235300000 -0.003253800000 -0.001466500000  0.000400200000  0.000000000000  0.000000000000  0.000000000000  0.000000000000
  0.079184100000 -0.036931600000  0.018433800000  0.009812600000 -0.005121800000 -0.002308300000  0.000630000000  0.000000000000  0.000000000000  0.000000000000  0.000000000000
  0.118941400000 -0.057213600000  0.028693700000  0.015285900000 -0.007982800000 -0.003599100000  0.000982000000  0.000000000000  0.000000000000  0.000000000000  0.000000000000
  0.171699100000 -0.086385200000  0.043778200000  0.023406100000 -0.012229600000 -0.005512200000  0.001504900000  0.000000000000  0.000000000000  0.000000000000  0.000000000000
  0.222018700000 -0.118716700000  0.060675000000  0.032456700000 -0.016978000000 -0.007660700000  0.002089000000  0.000000000000  0.000000000000  0.000000000000  0.000000000000
  0.248420200000 -0.140679200000  0.073148300000  0.039438000000 -0.020636600000 -0.009298700000  0.002542700000  0.000000000000  0.000000000000  0.000000000000  0.000000000000
  0.212619100000 -0.103280500000  0.049048800000  0.025431300000 -0.013227200000 -0.005975100000  0.001617900000  0.000000000000  0.000000000000  0.000000000000  0.000000000000
  0.092643700000  0.106235300000 -0.091366800000 -0.054962000000  0.029857300000  0.013642200000 -0.003696900000  0.000000000000  0.000000000000  0.000000000000  0.000000000000
  0.009417700000  0.416154600000 -0.381419400000 -0.239725900000  0.130932700000  0.059630500000 -0.016381000000  0.000000000000  0.000000000000  0.000000000000  0.000000000000
  0.001611600000  0.469782000000 -0.503240000000 -0.330750000000  0.184786900000  0.085011500000 -0.023095000000  0.000000000000  0.000000000000  0.000000000000  0.000000000000
 -0.001331300000  0.164411200000  0.114504100000  0.146454400000 -0.098225700000 -0.047920100000  0.012649500000  0.000000000000  0.000000000000  0.000000000000  0.000000000000
  0.001260100000 -0.035424100000  0.747546000000  0.945528300000 -0.632891900000 -0.302897300000  0.084740500000  0.000000000000  0.000000000000  0.000000000000  0.000000000000
 -0.000882300000  0.022060500000  0.417060300000  0.513452500000 -0.359488200000 -0.181297200000  0.048066300000  0.000000000000  0.000000000000  0.000000000000  0.000000000000
  0.000621700000 -0.013687100000  0.051535000000 -0.801530600000  0.903307800000  0.510451000000 -0.139921500000  0.000000000000  0.000000000000  0.000000000000  0.000000000000
 -0.000399300000  0.008379200000 -0.002939400000 -0.732932700000  1.156590300000  0.709464000000 -0.209862800000  0.000000000000  0.000000000000  0.000000000000  0.000000000000
  0.000196300000 -0.004033700000  0.001439500000 -0.114393500000 -0.666843700000 -0.634831300000  0.201884600000  0.000000000000  0.000000000000  0.000000000000  0.000000000000
 -0.000088400000  0.001805600000 -0.000768600000  0.006321100000 -1.019181600000 -1.069574900000  0.326377200000  0.000000000000  0.000000000000  0.000000000000  0.000000000000
  0.000042200000 -0.000860300000  0.000307800000 -0.003525200000 -0.119554400000  0.364779900000 -0.113026500000  0.000000000000  0.000000000000  0.000000000000  0.000000000000
 -0.000027100000  0.000552000000 -0.000193200000  0.002163200000  0.023161200000  0.821371500000 -0.456761400000  1.000000000000  0.000000000000  0.000000000000  0.000000000000
  0.000008800000 -0.000180200000  0.000065800000 -0.000672500000 -0.005703900000  0.289972800000 -0.200371800000  0.000000000000  1.000000000000  0.000000000000  0.000000000000
 -0.000001600000  0.000032300000 -0.000011600000  0.000122500000  0.000788000000  0.008460700000  0.782218100000  0.000000000000  0.000000000000  1.000000000000  0.000000000000
  0.000000600000 -0.000011600000  0.000003900000 -0.000040300000 -0.000272500000 -0.001920200000  0.426246700000  0.000000000000  0.000000000000  0.000000000000  1.000000000000
* p-type functions
   26    9    4
  370823890.00000000
   55960854.00000000
   12078576.00000000
    3116104.50000000
     306639.62000000
     920718.16000000
     111343.65000000
      43139.10100000
      17688.12900000
       7644.47660000
       3468.45480000
       1647.57370000
        817.37833000
        422.57661000
        225.98536000
        124.10979000
         70.04369700
         39.66171200
         21.34273300
         11.89699500
          6.46228490
          3.41332310
          1.70526420
          0.82660041
          0.38674833
          0.16221806
  0.000014900000 -0.000008000000 -0.000004300000 -0.000002200000  0.000000900000  0.000000000000  0.000000000000  0.000000000000  0.000000000000
  0.000043200000 -0.000023300000 -0.000012500000 -0.000006400000  0.000002500000  0.000000000000  0.000000000000  0.000000000000  0.000000000000
  0.000111600000 -0.000060300000 -0.000032400000 -0.000016400000  0.000006400000  0.000000000000  0.000000000000  0.000000000000  0.000000000000
  0.000270100000 -0.000146100000 -0.000078600000 -0.000039800000  0.000015600000  0.000000000000  0.000000000000  0.000000000000  0.000000000000
  0.001347800000 -0.000733400000 -0.000395000000 -0.000200300000  0.000078200000  0.000000000000  0.000000000000  0.000000000000  0.000000000000
  0.000613600000 -0.000332800000 -0.000179100000 -0.000090800000  0.000035500000  0.000000000000  0.000000000000  0.000000000000  0.000000000000
  0.002990000000 -0.001634900000 -0.000881600000 -0.000447300000  0.000174700000  0.000000000000  0.000000000000  0.000000000000  0.000000000000
  0.006739500000 -0.003708400000 -0.002003200000 -0.001016500000  0.000396800000  0.000000000000  0.000000000000  0.000000000000  0.000000000000
  0.015408500000 -0.008560500000 -0.004634900000 -0.002354800000  0.000920000000  0.000000000000  0.000000000000  0.000000000000  0.000000000000
  0.035369100000 -0.019913500000 -0.010822200000 -0.005499300000  0.002147400000  0.000000000000  0.000000000000  0.000000000000  0.000000000000
  0.079192500000 -0.045558200000 -0.024890000000 -0.012681600000  0.004958500000  0.000000000000  0.000000000000  0.000000000000  0.000000000000
  0.162028500000 -0.095988600000 -0.052887800000 -0.026966500000  0.010535900000  0.000000000000  0.000000000000  0.000000000000  0.000000000000
  0.274028800000 -0.168589100000 -0.093815900000 -0.048090200000  0.018839400000  0.000000000000  0.000000000000  0.000000000000  0.000000000000
  0.330815900000 -0.199800000000 -0.110318900000 -0.056104300000  0.021872500000  0.000000000000  0.000000000000  0.000000000000  0.000000000000
  0.233811000000 -0.049843100000 -0.005202300000  0.000395300000 -0.000331900000  0.000000000000  0.000000000000  0.000000000000  0.000000000000
  0.073474800000  0.302046600000  0.265766700000  0.154932100000 -0.062758100000  0.000000000000  0.000000000000  0.000000000000  0.000000000000
  0.006531800000  0.492378500000  0.457014500000  0.264807100000 -0.106037200000  0.000000000000  0.000000000000  0.000000000000  0.000000000000
  0.000250700000  0.282162300000  0.066369000000  0.001966300000  0.001680000000  0.000000000000  0.000000000000  0.000000000000  0.000000000000
 -0.000187500000  0.049530900000 -0.602628700000 -0.564714300000  0.257431300000  0.000000000000  0.000000000000  0.000000000000  0.000000000000
  0.000029200000 -0.001868700000 -0.509109400000 -0.471690200000  0.204904900000  0.000000000000  0.000000000000  0.000000000000  0.000000000000
 -0.000013900000  0.001288900000 -0.098226700000  0.483682200000 -0.315423300000  0.000000000000  0.000000000000  0.000000000000  0.000000000000
  0.000016200000 -0.000768700000 -0.003214500000  0.693429000000 -0.475163300000  0.000000000000  0.000000000000  0.000000000000  0.000000000000
 -0.000004700000  0.000309000000 -0.000353000000  0.187897900000  0.066356800000  1.000000000000  0.000000000000  0.000000000000  0.000000000000
  0.000002400000 -0.000145400000  0.000082500000  0.006413300000  0.584367600000  0.000000000000  1.000000000000  0.000000000000  0.000000000000
 -0.000000900000  0.000056400000 -0.000017900000  0.001711100000  0.464011100000  0.000000000000  0.000000000000  1.000000000000  0.000000000000
  0.000000200000 -0.000014000000  0.000000200000 -0.000401100000  0.093600200000  0.000000000000  0.000000000000  0.000000000000  1.000000000000
* d-type functions
   18    8    3
      33883.21900000
       8462.20610000
       2945.41430000
       1216.58070000
        560.42849000
        280.51156000
        149.61578000
         84.18176800
         48.47018500
         27.10565900
         15.06318700
          8.20715220
          4.35722640
          2.22659410
          1.06480620
          0.39734160
          0.13720912
        433.47259e-4
  0.000213700000  0.000125600000  0.000060000000 -0.000011600000  0.000000000000  0.000000000000  0.000000000000  0.000000000000
  0.001346600000  0.000793600000  0.000379200000 -0.000073700000  0.000000000000  0.000000000000  0.000000000000  0.000000000000
  0.006528800000  0.003872800000  0.001855000000 -0.000359200000  0.000000000000  0.000000000000  0.000000000000  0.000000000000
  0.025909600000  0.015500300000  0.007433600000 -0.001445800000  0.000000000000  0.000000000000  0.000000000000  0.000000000000
  0.081288300000  0.049424700000  0.023826000000 -0.004615400000  0.000000000000  0.000000000000  0.000000000000  0.000000000000
  0.189727600000  0.116966300000  0.056498600000 -0.011018800000  0.000000000000  0.000000000000  0.000000000000  0.000000000000
  0.308064900000  0.186900100000  0.090168800000 -0.017394600000  0.000000000000  0.000000000000  0.000000000000  0.000000000000
  0.324976500000  0.164974800000  0.073607300000 -0.014381800000  0.000000000000  0.000000000000  0.000000000000  0.000000000000
  0.209983300000 -0.051313500000 -0.054422000000  0.012167000000  0.000000000000  0.000000000000  0.000000000000  0.000000000000
  0.064904500000 -0.385738800000 -0.260005000000  0.052186000000  0.000000000000  0.000000000000  0.000000000000  0.000000000000
  0.003629800000 -0.466355500000 -0.286439500000  0.059009600000  0.000000000000  0.000000000000  0.000000000000  0.000000000000
  0.000950100000 -0.193071900000  0.155844100000 -0.048468900000  0.000000000000  0.000000000000  0.000000000000  0.000000000000
 -0.000528600000 -0.021699400000  0.539036900000 -0.130103500000  0.000000000000  0.000000000000  0.000000000000  0.000000000000
  0.000170000000 -0.001054300000  0.394568300000 -0.089811600000  0.000000000000  0.000000000000  0.000000000000  0.000000000000
 -0.000086500000  0.000032000000  0.101180700000  0.131316000000  1.000000000000  0.000000000000  0.000000000000  0.000000000000
  0.000022300000 -0.000043100000  0.005176500000  0.383789100000  0.000000000000  1.000000000000  0.000000000000  0.000000000000
 -0.000008500000  0.000013600000 -0.000088000000  0.486174200000  0.000000000000  0.000000000000  1.000000000000  0.000000000000
  0.000002600000 -0.000003800000  0.000049900000  0.303248500000  0.000000000000  0.000000000000  0.000000000000  1.000000000000
* f-type functions
   13    4    1
       2124.28080000
        709.41607000
        300.46753000
        143.66872000
         73.74290200
         39.62764000
         21.69452700
         11.94055500
          6.44173870
          3.30920890
          1.60269060
          0.71663710
          0.28133596
 -0.000394100000 -0.000154100000  0.000000000000  0.000000000000
 -0.003469800000 -0.001359200000  0.000000000000  0.000000000000
 -0.019055400000 -0.007497800000  0.000000000000  0.000000000000
 -0.068875500000 -0.027175200000  0.000000000000  0.000000000000
 -0.173113400000 -0.068494300000  0.000000000000  0.000000000000
 -0.297296400000 -0.112159800000  0.000000000000  0.000000000000
 -0.351268300000 -0.114256400000  0.000000000000  0.000000000000
 -0.253228100000  0.001413100000  0.000000000000  0.000000000000
 -0.091621900000  0.225460900000  0.000000000000  0.000000000000
 -0.011338900000  0.383028400000  0.000000000000  0.000000000000
 -0.000306600000  0.359755000000  0.000000000000  0.000000000000
 -0.000020100000  0.218114800000  1.000000000000  0.000000000000
  0.000001400000  0.068412600000  0.000000000000  1.000000000000
End of Spectral Representation Operator
