************************************************************************
* This file is part of OpenMolcas.                                     *
*                                                                      *
* OpenMolcas is free software; you can redistribute it and/or modify   *
* it under the terms of the GNU Lesser General Public License, v. 2.1. *
* OpenMolcas is distributed in the hope that it will be useful, but it *
* is provided "as is" and without any express or implied warranties.   *
* For more details see the full text of the license in the file        *
* LICENSE or in <http://www.gnu.org/licenses/>.                        *
************************************************************************

#Hamiltonian RCP
#Nucleus UNK
#Contraction RAF
#AllElectron NAE

********************************************************************************
* See the file AIMP.README                                                     *
********************************************************************************

********************************************************************************
* C.2. Non-relativistic core AIMPs: NR-AIMP
********************************************************************************
*                                                                 recommended
*                                                                 contraction
*       C.2.1. Main Group Elements
*         C.2.1.1. Alkaline Elements
*           /Li.NR-AIMP.Huzinaga.5s1p.1s1p.ECP.1el.                   2s1p
*           /Na.NR-AIMP.Huzinaga.7s6p.1s2p.ECP.7el.                   2s3p
*           /K.NR-AIMP.Huzinaga.9s7p.1s2p.ECP.7el.                    2s3p
*           /Rb.NR-AIMP.Huzinaga.11s9p6d.1s2p1d.ECP.7el.              2s3p1d
*           /Cs.NR-AIMP.Huzinaga.13s11p8d.1s2p1d.ECP.7el.             3s3p1d
*         C.2.1.2. Alkaline Earth Elements
*           /Be.NR-AIMP.Huzinaga.5s1p.1s1p.ECP.2el.                   2s1p
*           /Mg.NR-AIMP.Seijo.7s6p1d.1s2p1d.ECP.8el.                  2s3p1d
*           /Ca.NR-AIMP.Seijo.9s7p5d.1s2p3d.ECP.8el.                  2s3p3d
*           /Sr.NR-AIMP.Seijo.11s9p7d.1s2p1d.ECP.8el.                 3s3p3d
*           /Ba.NR-AIMP.Seijo.13s11p8d.1s2p1d.ECP.8el.                3s3p3d
*         C.2.1.3. Group IIIA Elements
*           /B.NR-AIMP.Huzinaga.5s5p1d.1s1p1d.ECP.3el.                2s3p1d
*           /Al.NR-AIMP.Huzinaga.7s6p1d.1s1p1d.ECP.3el.               2s3p1d
*           /Ga.NR-AIMP.Huzinaga.9s8p4d.1s1p2d.ECP.3el.               3s3p2d
*           /In.NR-AIMP.Barandiaran.11s10p7d.1s1p2d.ECP.13el.         3s3p3d
*           /Tl.NR-AIMP.Barandiaran.13s12p8d5f.1s1p2d1f.ECP.13el.     3s4p3d2f
*         C.2.1.4. Group IVA Elements
*           /C.NR-AIMP.Huzinaga.5s5p1d.1s1p1d.ECP.4el.                2s3p1d
*           /Si.NR-AIMP.Huzinaga.7s6p1d.1s1p1d.ECP.4el.               2s3p1d
*           /Ge.NR-AIMP.Huzinaga.9s8p4d.1s1p2d.ECP.4el.               3s3p2d
*           /Sn.NR-AIMP.Barandiaran.11s10p7d.1s1p2d.ECP.14el.         3s3p3d
*           /Pb.NR-AIMP.Barandiaran.13s12p8d5f.1s1p2d1f.ECP.14el.     3s4p3d2f
*         C.2.1.5. Group VA Elements
*           /N.NR-AIMP.Huzinaga.5s5p1d.1s1p1d.ECP.5el.                2s3p1d
*           /P.NR-AIMP.Huzinaga.7s6p1d.1s1p1d.ECP.5el.                2s3p1d
*           /As.NR-AIMP.Huzinaga.9s8p4d.1s1p2d.ECP.5el.               3s3p2d
*           /Sb.NR-AIMP.Barandiaran.11s10p7d.1s1p2d.ECP.15el.         3s3p3d
*           /Bi.NR-AIMP.Barandiaran.13s12p8d5f.1s1p2d1f.ECP.15el.     3s4p3d2f
*         C.2.1.6. Group VIA Elements (Calcogens)
*           /O.NR-AIMP.Huzinaga.5s6p1d.1s2p1d.ECP.6el.                2s4p1d
*           /S.NR-AIMP.Huzinaga.7s6p1d.1s1p1d.ECP.6el.                2s3p1d
*           /Se.NR-AIMP.Huzinaga.9s8p4d.1s1p2d.ECP.6el.               3s3p2d
*           /Te.NR-AIMP.Barandiaran.11s10p7d.1s1p2d.ECP.16el.         3s3p3d
*           /Po.NR-AIMP.Barandiaran.13s12p8d5f.1s1p2d1f.ECP.16el.     3s4p3d2f
*         C.2.1.7. Group VIIA Elements (Halogens)
*           /F.NR-AIMP.Huzinaga.5s6p1d.1s2p1d.ECP.7el.                2s4p1d
*           /Cl.NR-AIMP.Huzinaga.7s7p1d.1s2p1d.ECP.7el.               2s4p1d
*           /Br.NR-AIMP.Huzinaga.9s8p4d.1s1p2d.ECP.7el.               3s4p2d
*           /I.NR-AIMP.Barandiaran.11s10p7d.1s1p2d.ECP.17el.          3s4p3d
*           /At.NR-AIMP.Barandiaran.13s12p8d5f.1s1p2d1f.ECP.17el.     3s4p3d2f
*         C.2.1.8. Group 0 Elements (Noble Gases)
*           /Ne.NR-AIMP.Huzinaga.5s5p1d.1s1p1d.ECP.8el.               2s3p1d
*           /Ar.NR-AIMP.Huzinaga.7s6p1d.1s1p1d.ECP.8el.               2s3p1d
*           /Kr.NR-AIMP.Huzinaga.9s8p4d.1s1p2d.ECP.8el.               3s3p2d
*           /Xe.NR-AIMP.Barandiaran.11s10p7d.1s1p2d.ECP.18el.         3s3p3d
*           /Rn.NR-AIMP.Barandiaran.13s12p8d5f.1s1p2d1f.ECP.18el.     3s4p3d2f
*       C.2.2. Transition Metal Elements
*         C.2.2.1. First Series Transition Metal Elements
*           /Sc.NR-AIMP.Seijo.9s6p6d.1s2p2d.ECP.9el.                  3s3p4d
*           /Ti.NR-AIMP.Seijo.9s6p6d.1s2p2d.ECP.10el.                 3s3p4d
*           /V.NR-AIMP.Seijo.9s6p6d.1s2p2d.ECP.11el.                  3s3p4d
*           /Cr.NR-AIMP.Seijo.9s6p6d.1s2p2d.ECP.12el.                 3s3p4d
*           /Mn.NR-AIMP.Seijo.9s6p6d.1s2p2d.ECP.13el.                 3s3p4d
*           /Fe.NR-AIMP.Seijo.9s6p6d.1s2p2d.ECP.14el.                 3s3p4d
*           /Co.NR-AIMP.Seijo.9s6p6d.1s2p2d.ECP.15el.                 3s3p4d
*           /Ni.NR-AIMP.Seijo.9s6p6d.1s2p2d.ECP.16el.                 3s3p4d
*           /Cu.NR-AIMP.Seijo.9s6p6d.1s2p2d.ECP.17el.                 3s3p4d
*           /Zn.NR-AIMP.Seijo.9s6p5d.1s2p1d.ECP.18el.                 3s3p3d
*         C.2.2.2. Second Series Transition Metal Elements
*           /Y.NR-AIMP.Barandiaran.11s8p7d.1s2p2d.ECP.9el.            3s3p4d
*           /Zr.NR-AIMP.Barandiaran.11s8p7d.1s2p2d.ECP.10el.          3s3p4d
*           /Nb.NR-AIMP.Barandiaran.11s8p7d.1s2p2d.ECP.11el.          3s3p4d
*           /Mo.NR-AIMP.Barandiaran.11s8p7d.1s2p2d.ECP.12el.          3s3p4d
*           /Tc.NR-AIMP.Barandiaran.11s8p7d.1s2p2d.ECP.13el.          3s3p4d
*           /Ru.NR-AIMP.Barandiaran.11s8p7d.1s2p2d.ECP.14el.          3s3p4d
*           /Rh.NR-AIMP.Barandiaran.11s8p7d.1s2p2d.ECP.15el.          3s3p4d
*           /Pd.NR-AIMP.Barandiaran.11s8p7d.1s2p2d.ECP.16el.          3s3p4d
*           /Ag.NR-AIMP.Barandiaran.11s8p7d.1s2p2d.ECP.17el.          3s3p4d
*           /Cd.NR-AIMP.Barandiaran.11s8p6d.1s2p1d.ECP.18el.          3s3p3d
*         C.2.2.3 Lanthanum and Third Series Transition Metal Elements
*           /La.NR-AIMP.Casarrubios.13s10p8d.1s2p2d.ECP.9el.          3s3p3d
*           /Hf.NR-AIMP.Casarrubios.13s10p9d5f.1s2p2d1f.ECP.10el.     3s3p4d2f
*           /Ta.NR-AIMP.Casarrubios.13s10p9d5f.1s2p2d1f.ECP.11el.     3s3p4d2f
*           /W.NR-AIMP.Casarrubios.13s10p9d5f.1s2p2d1f.ECP.12el.      3s3p4d2f
*           /Re.NR-AIMP.Casarrubios.13s10p9d5f.1s2p2d1f.ECP.13el.     3s3p4d2f
*           /Os.NR-AIMP.Casarrubios.13s10p9d5f.1s2p2d1f.ECP.14el.     3s3p4d2f
*           /Ir.NR-AIMP.Casarrubios.13s10p9d5f.1s2p2d1f.ECP.15el.     3s3p4d2f
*           /Pt.NR-AIMP.Casarrubios.13s10p9d5f.1s2p2d1f.ECP.16el.     3s3p4d2f
*           /Au.NR-AIMP.Casarrubios.13s10p9d5f.1s2p2d1f.ECP.17el.     3s3p4d2f
*           /Hg.NR-AIMP.Casarrubios.13s10p9d5f.1s2p2d1f.ECP.18el.     3s3p4d2f
********************************************************************************
*
* - Except when indicated otherwise, polarization functions are taken from
*   S. Huzinaga (Editor), J. Andzelm, M. Klobukowski, E. Radzio-Andzelm, Y. Sakai, H. Tatewaki.
*   "Gaussian Basis Sets for Molecular Calculations" (Elsevier, Amsterdam, 1984).
*
********************************************************************************
*    C.2.1. Main Group Elements
********************************************************************************

********************************************************************************
*         C.2.1.1. Alkaline Elements
********************************************************************************

/Li.NR-AIMP.Huzinaga.5s1p.1s1p.ECP.1el.
S. Huzinaga, L. Seijo, Z. Barandiaran, M. Klobukowski. J. Chem. Phys. 86 (1987) 2132-2145. doi:10.1063/1.452111
LITHIUM (5s,1p) -> [1s,1p]
********************************************************************************
*core[He] val[2s]     (41/1*)=2s1p recommended
*LI-S(5/1)                     (41/1) recommended
********************************************************************************
     1.0   1
* s-type functions
    5    1
         30.38141270
          4.49014925
       8668.38002e-4
       6301.46574e-5
       2432.36319e-5
 -0.013572912500
 -0.076451127700
 -0.191717144000
  0.684843845000
  0.389591682000
* p-type functions
    1    1
          0.07600000
  1.000000000000
********************************************************************************
* Core AIMP: LI-1S
*
* Local Potential Parameters: (ECP convention)
*                             A(AIMP)=-Zeff*A(ECP)
********************************************************************************
M1
  8
  1.9777587000e5  1.7359376000e4  2.5898142000e3  4.7985840000e2  1.0099238000e2 23.344189000000  6.031374800000  1.824793300000
  0.012836590000  0.023658825000  0.052932288000  0.113405280000  0.243128080000  0.524191860000  0.766184490000  0.263662590000
M2
  0
COREREP
 1.0
PROJOP
    0
   14    1
  4.955470400000
      22419.73600000
       3411.92060000
        791.56798000
        230.19930000
         77.24497200
         28.21535300
         10.94532000
          4.45550990
          1.89123490
          0.84168088
          0.38245884
          0.10712717
        494.89457e-4
        220.97232e-4
  0.000025371339
  0.000192293190
  0.000980069990
  0.003938982200
  0.013645109000
  0.042188668000
  0.111024210000
  0.231957520000
  0.348555930000
  0.307358130000
  0.100608800000
  0.002648971200
 -0.000296084850
  0.000314285710
Spectral Representation Operator
Valence primitive basis
Exchange
End of Spectral Representation Operator

/Na.NR-AIMP.Huzinaga.7s6p.1s2p.ECP.7el.
S. Huzinaga, L. Seijo, Z. Barandiaran, M. Klobukowski. J. Chem. Phys. 86 (1987) 2132-2145. doi:10.1063/1.452111
SODIUM (7s,6p) -> [1s,2p]
********************************************************************************
* L.S. and Z.B., unpublished.
*core[Be] val[2p,3s]   (61/411*)=2s3p recommended
*NA-PS(7/51)                   (61/411)
********************************************************************************
     7.0   1
* s-type functions
    7    1
        630.90424600
         94.88866070
         20.91960790
          1.71375373
       5085.22906e-4
       5852.40252e-5
          0.02329278
  0.002083493300
  0.013809422300
  0.039910299200
 -0.126419321000
 -0.195880672000
  0.638329841000
  0.460086346000
* p-type functions
    6    2
         75.99705940
         17.39750200
          5.21351089
          1.66709773
       5137.24518e-4
          0.06100000
  0.015253770600  0.000000000000
  0.098947654000  0.000000000000
  0.311271401000  0.000000000000
  0.493616484000  0.000000000000
  0.325234288000  0.000000000000
  0.000000000000  1.000000000000
********************************************************************************
* Core AIMP: NA-2S
*
* Local Potential Parameters: (ECP convention)
*                             A(AIMP)=-Zeff*A(ECP)
********************************************************************************
M1
 10
  2.7866900000e5  3.3464300000e4  6.3522800000e3  1.4943700000e3  4.1934200000e2  1.3429400000e2 46.721000000000 10.177600000000  3.676900000000  1.481600000000
  0.006677747286  0.009851848714  0.019858291429  0.037290198571  0.068187808571  0.105697198571  0.085167694286  0.068416807143  0.129828790000  0.040452185714
M2
  0
COREREP
 1.0
PROJOP
    0
   16    2
 80.956600000000  5.593742000000
     415780.43000000
      62811.13100000
      14035.58500000
       3975.69790000
       1265.43380000
        431.89542000
        155.14008000
         58.74279400
         23.33614200
          9.66402140
          4.01741670
          1.66983170
          0.69327959
          0.27766610
        690.40233e-4
        265.17216e-4
  0.000018211947 -0.000004448299
  0.000143837470 -0.000035114292
  0.000763566660 -0.000186707730
  0.003233215600 -0.000791255480
  0.012308099000 -0.003035642700
  0.042705574000 -0.010701747000
  0.127230980000 -0.033447901000
  0.292007470000 -0.085698088000
  0.415839130000 -0.161321420000
  0.234262660000 -0.143651390000
  0.022707886000  0.148323160000
  0.002963215800  0.515492150000
 -0.000555255170  0.438286610000
  0.000439850920  0.064288864000
 -0.000137933910 -0.001582442300
  0.000052767263  0.000755024680
Spectral Representation Operator
Valence primitive basis
Exchange
End of Spectral Representation Operator

/K.NR-AIMP.Huzinaga.9s7p.1s2p.ECP.7el.
S. Huzinaga, L. Seijo, Z. Barandiaran, M. Klobukowski. J. Chem. Phys. 86 (1987) 2132-2145. doi:10.1063/1.452111
POTASSIUM (9s,7p) -> [1s,2p]
********************************************************************************
* L.S. and Z.B., unpublished.
*core[Mg] val[3p,4s]     (81/511*)=2s3p recommended
*K-PS(9/61)                    (81/511)
********************************************************************************
     7.0   1
* s-type functions
    9    1
       1950.33224000
        293.87667000
         65.84539890
          6.47193878
          3.32335838
       6962.35794e-4
       2481.92742e-4
       3849.45717e-5
       1661.28084e-5
 -0.001015597440
 -0.006899194030
 -0.020721481900
  0.068016233500
  0.062447272800
 -0.197389404000
 -0.269372455000
  0.688769833000
  0.446922353000
* p-type functions
    7    2
        125.06453100
         28.65704550
          8.30908820
          1.02535092
       4011.66266e-4
       1580.26165e-4
          0.03900000
 -0.017050229300  0.000000000000
 -0.096385117100  0.000000000000
 -0.208744350000  0.000000000000
  0.468647697000  0.000000000000
  0.499527513000  0.000000000000
  0.146916817000  0.000000000000
  0.000000000000  1.000000000000
********************************************************************************
* Core AIMP: K-3S
*
* Local Potential Parameters: (ECP convention)
*                             A(AIMP)=-Zeff*A(ECP)
********************************************************************************
M1
 11
  2.9911500000e5  3.8393500000e4  7.9766100000e3  2.0747100000e3  6.2681700000e2  2.1076900000e2 66.484200000000 22.956400000000  9.723750000000  1.947320000000  0.819449000000
  0.017585765714  0.024492154286  0.045965665714  0.083124381429  0.140924278571  0.181042771429  0.202410200000  0.439370142857  0.337459242857  0.160859100000  0.081052002857
M2
  0
COREREP
 1.0
PROJOP
    1
   19    3
  2.6706556000e2 28.979486000000  3.497167600000
    1219069.70000000
     217894.50000000
      54252.06000000
      14848.54300000
       4370.44000000
       1414.40480000
        499.89550000
        191.61460000
         77.06294700
         32.23450500
         13.53878800
          5.74990920
          2.49240410
          1.04438230
          0.45124851
          0.18453594
          0.11350696
        344.46618e-4
        149.15923e-4
  0.000017776155 -0.000005104288  0.000001683947
  0.000108448340 -0.000031175663  0.000010253767
  0.000547513180 -0.000157265450  0.000051942280
  0.002636181800 -0.000759745910  0.000249840590
  0.011077250000 -0.003207141400  0.001060439300
  0.040159291000 -0.011860645000  0.003907467600
  0.119225330000 -0.036858442000  0.012283698000
  0.274884200000 -0.095560140000  0.031948492000
  0.412288610000 -0.186296650000  0.064957089000
  0.257743990000 -0.181111120000  0.064729932000
  0.031201105000  0.182381920000 -0.069638876000
  0.002024906400  0.652322080000 -0.377580080000
 -0.000887451420  0.328612650000 -0.314556810000
  0.000668952330  0.006859149200  0.435165280000
 -0.000542691220  0.008516125300  0.683230170000
  0.000456114030 -0.005967116000  0.194426460000
 -0.000286070430  0.003836057100 -0.023918309000
  0.000059896026 -0.000810617070  0.004225901800
 -0.000020237478  0.000272523670 -0.001011644600
   11    1
 23.038022000000
       1414.40480000
        499.89550000
        191.61460000
         77.06294700
         32.23450500
         13.53878800
          5.74990920
          2.49240410
          1.04438230
          0.45124851
          0.18453594
  0.000804898890
  0.003257830400
  0.015932073000
  0.058627737000
  0.175327980000
  0.364253960000
  0.413069310000
  0.160743750000
  0.009477740900
  0.001022626300
 -0.000220678530
Spectral Representation Operator
Valence primitive basis
Exchange
End of Spectral Representation Operator

/Rb.NR-AIMP.Huzinaga.11s9p6d.1s2p1d.ECP.7el.
S. Huzinaga, L. Seijo, Z. Barandiaran, M. Klobukowski. J. Chem. Phys. 86 (1987) 2132-2145. doi:10.1063/1.452111
RUBIDIUM (11s,9p,6d) -> [1s,2p,1d]
********************************************************************************
* L.S. and Z.B., unpublished.
*core[Zn] val[4p,5s]  (10,1/711*/6o)=2s3p1d recomm.
*
* - (6o) d orthogonality function is the 3d core orbital
*
*RB-PS(A1/81/6)                (A01/711/6)
********************************************************************************
     7.0   2
* s-type functions
   11    1
       7977.10069000
       1190.95839000
        266.61923700
         28.55993000
         14.38542250
          6.05945327
          2.79363750
       5060.49385e-4
       1944.75024e-4
       3405.98185e-5
        150.38931e-4
  0.000466665503
  0.003300613170
  0.010596962800
 -0.040522243400
 -0.027498780700
  0.038321466100
  0.146173093000
 -0.239569373000
 -0.288606487000
  0.698381011000
  0.456426803000
* p-type functions
    9    2
        642.55549800
        150.40028300
         46.51113500
          6.70894986
          3.03711453
       8218.80053e-4
       3577.99388e-4
       1434.59761e-4
          0.03400000
  0.005368702360  0.000000000000
  0.034248837200  0.000000000000
  0.084812388700  0.000000000000
 -0.204667452000  0.000000000000
 -0.198419142000  0.000000000000
  0.369683819000  0.000000000000
  0.563540488000  0.000000000000
  0.218231050000  0.000000000000
  0.000000000000  1.000000000000
* d-type functions
    6    1
        111.59500000
         34.28250000
         13.31510000
          5.59705000
          2.38971000
          0.94742000
  0.026656085200
  0.133884528000
  0.319212406000
  0.422376305000
  0.302249848000
  0.074456183800
********************************************************************************
* Core AIMP: RB-3D
*
* Local Potential Parameters: (ECP convention)
*                             A(AIMP)=-Zeff*A(ECP)
********************************************************************************
M1
 12
  3.6054400000e5  5.3412900000e4  1.2225620000e4  3.3960000000e3  1.0834860000e3  3.5453600000e2  1.2154660000e2 52.189700000000 14.245200000000  6.511370000000  1.965520000000
  0.711529000000
  0.041561692857  0.051886792857  0.096033642857  0.167497700000  0.247090185714  0.296728100000  0.580275214286  0.551984985714  0.828553685714  1.058155585714  0.244668957143
  0.121277730000
M2
  0
COREREP
 1.0
PROJOP
    2
   22    4
  1.1029138000e3  1.5009834000e2 24.265823000000  3.046726900000
    9160644.80000000
    1418114.30000000
     347654.22000000
      94658.06800000
      28524.90200000
       9094.21270000
       3164.14900000
       1201.90090000
        489.76240000
        210.50229000
         93.03847700
         41.75079400
         18.97761200
          8.55589400
          3.90035430
          1.81078370
          0.78287166
          0.34569167
          0.14787121
         25.18405700
        335.17599e-4
        150.82911e-4
  0.000008311993 -0.000002620864  0.000001061915 -0.000000358646
  0.000057227440 -0.000018072453  0.000007312039 -0.000002470963
  0.000293759660 -0.000092610522  0.000037548012 -0.000012678389
  0.001361712700 -0.000430827470  0.000174291060 -0.000058907570
  0.005740266300 -0.001818446000  0.000737883050 -0.000249160180
  0.021914991000 -0.007043067800  0.002854398300 -0.000965128580
  0.069818185000 -0.023086181000  0.009425157200 -0.003184870900
  0.179801720000 -0.064506189000  0.026494354000 -0.008982144700
  0.340617400000 -0.144642740000  0.061199976000 -0.020778643000
  0.372776360000 -0.226553170000  0.099746888000 -0.034293902000
  0.150383270000 -0.092404515000  0.047536068000 -0.016199936000
  0.000169455300  0.418991210000 -0.271246670000  0.095618773000
 -0.008498122500  0.552768390000 -0.565409610000  0.205091250000
  0.001397503400  0.147661440000  0.060967105000 -0.019196349000
 -0.000651164110 -0.004782391100  0.817157020000 -0.487995230000
  0.000305660200  0.005132819200  0.368285210000 -0.416450960000
 -0.000151066360 -0.002377422300  0.011492548000  0.464025690000
  0.000076473742  0.001092724100  0.003391395400  0.737413770000
 -0.000027179151 -0.000412101210 -0.000667127150  0.155001000000
  0.013274129000  0.067091237000 -0.010499394000  0.016024017000
  0.000008204003  0.000123043510  0.000242861210 -0.002348339400
 -0.000003693013 -0.000055263477 -0.000113510080  0.001460301100
   14    2
  1.3581190000e2 18.974795000000
       9094.21270000
       3164.14900000
       1201.90090000
        489.76240000
        210.50229000
         93.03847700
         41.75079400
         18.97761200
          8.55589400
          3.90035430
          1.81078370
          0.78287166
          0.34569167
          0.14787121
  0.000391914710 -0.000162123130
  0.001706944800 -0.000701390330
  0.008634404500 -0.003605233500
  0.033590934000 -0.014123681000
  0.109794500000 -0.048017831000
  0.271742950000 -0.124315990000
  0.423936730000 -0.210048920000
  0.285655080000 -0.074704014000
  0.048037994000  0.366048560000
  0.002739073300  0.546072100000
 -0.000379707750  0.215995980000
  0.000392700160  0.014560568000
 -0.000204903760  0.000566580580
  0.000061660853 -0.000064755618
    9    1
  9.464022700000
        489.76240000
        210.50229000
         93.03847700
         41.75079400
         18.97761200
          8.55589400
          3.90035430
          1.81078370
          0.78287166
  0.001047786400
  0.004264839100
  0.021894271000
  0.077153586000
  0.210645210000
  0.361881520000
  0.365446790000
  0.196579750000
  0.041089989000
Spectral Representation Operator
Valence primitive basis
Exchange
End of Spectral Representation Operator

/Cs.NR-AIMP.Huzinaga.13s11p8d.1s2p1d.ECP.7el.
S. Huzinaga, L. Seijo, Z. Barandiaran, M. Klobukowski. J. Chem. Phys. 86 (1987) 2132-2145. doi:10.1063/1.452111
CAESIUM (13s,11p,8d) -> [1s,2p,1d]
********************************************************************************
* L.S. and Z.B., unpublished.
*core[Cd] val[5p,6s]  (11,1,1/911*/8o)=3s3p1d recomm.
*
* - (8o) d orthogonality function is the 4d core orbital
*
*CS-PS(A3/A01/8)               (A21/911/8)
********************************************************************************
     7.0   2
* s-type functions
   13    1
      18247.18990000
       2715.54600000
        607.11506700
         77.63931450
         51.90406130
         10.96039880
          7.63093877
          3.50839864
          1.58491808
       4363.17999e-4
       1666.15451e-4
       2568.72364e-5
       1180.39643e-5
 -0.000278875481
 -0.002005271780
 -0.006686169730
  0.010712785100
  0.029105351100
 -0.070196686700
 -0.058765086200
  0.061153034600
  0.219675287000
 -0.210787337000
 -0.399840852000
  0.791154452000
  0.371657577000
* p-type functions
   11    2
       1581.57394000
        372.35651900
        117.32324800
         17.48693350
          6.84905604
          4.12435300
          1.67502833
       8165.93775e-4
       3185.43266e-4
       1248.55474e-4
          0.02600000
 -0.002793717910  0.000000000000
 -0.018662767100  0.000000000000
 -0.049346633000  0.000000000000
  0.163156893000  0.000000000000
  0.134458714000  0.000000000000
 -0.302929117000  0.000000000000
 -0.388331119000  0.000000000000
  0.239114021000  0.000000000000
  0.686765850000  0.000000000000
  0.312684720000  0.000000000000
  0.000000000000  1.000000000000
* d-type functions
    8    1
        295.07100000
         91.71190000
         35.95070000
         15.47320000
          6.94878000
          3.14598000
          1.40090000
          0.57149000
  0.012776464000
  0.070921517000
  0.172825750000
  0.176003850000
 -0.152488230000
 -0.516053600000
 -0.410344020000
 -0.090445954000
********************************************************************************
* Core AIMP: CS-4D
*
* Local Potential Parameters: (ECP convention)
*                             A(AIMP)=-Zeff*A(ECP)
********************************************************************************
M1
 13
  4.1234700000e5  6.5357900000e4  1.5767620000e4  4.5753900000e3  1.4909130000e3  4.7687100000e2  1.8591440000e2 62.215000000000 27.357050000000  5.256090000000  3.065010000000
  1.102969000000  0.469060000000
  0.066442394286  0.079280785714  0.143672700000  0.239564371429  0.319712514286  0.485330842857  0.821438814286  0.575718400000  1.692870571429  1.055656971429  0.997898414286
  0.279244328571  0.100311777143
M2
  0
COREREP
 1.0
PROJOP
    2
   15    5
  2.5455376000e3  3.9628755000e2 85.386052000000 17.390968000000  2.463205300000
      71400.00000000
      13000.00000000
       3601.00000000
       1223.00000000
        472.20000000
        197.60000000
         83.48000000
         38.47000000
         14.39000000
          7.46800000
          2.92300000
          1.45800000
          0.25090000
          0.48120000
          0.11680000
  0.008846084200  0.002944251900  0.001285013500  0.000608127870  0.000228031300
  0.048338572000  0.015939328000  0.007354918000  0.003322521300  0.001226436600
  0.166871710000  0.060617935000  0.027010843000  0.012729248000  0.004764965900
  0.370230160000  0.156457440000  0.074786618000  0.034120895000  0.012624731000
  0.410922450000  0.263625550000  0.126939710000  0.061415435000  0.023135840000
  0.138646530000  0.053153609000  0.038373209000  0.015346306000  0.005354146800
  0.002484541700 -0.560746220000 -0.458078470000 -0.231330300000 -0.087320822000
  0.001383734700 -0.540786300000 -0.564432750000 -0.338352820000 -0.133740560000
 -0.000904664470 -0.076256460000  0.606078800000  0.542631900000  0.234561770000
  0.000585134830  0.017837838000  0.699476790000  0.834032830000  0.377450000000
 -0.000307140770 -0.006596962500  0.080853820000 -0.698089340000 -0.426900090000
  0.000184412920  0.003689483800 -0.012064552000 -0.757502080000 -0.723262600000
  0.000062991026  0.001162551100 -0.002972798100  0.013388214000  0.738334830000
 -0.000094582630 -0.001773263700  0.004657301200 -0.055824313000  0.442072750000
 -0.000016644472 -0.000305558050  0.000725344460 -0.002852105300  0.178026980000
   12    3
  3.7263233000e2 75.191854000000 13.537054000000
       2932.00000000
        764.60000000
        273.80000000
        114.37000000
         52.18000000
         23.87800000
         11.77200000
          5.83200000
          2.95200000
          1.47740000
          0.67900000
          0.09420000
  0.013653427000  0.006432687800  0.002884790900
  0.081203417000  0.039949121000  0.018135217000
  0.256204010000  0.132764480000  0.060774689000
  0.431510570000  0.246668640000  0.115832350000
  0.323251770000  0.123795840000  0.049382014000
  0.073103046000 -0.364120660000 -0.240216410000
 -0.001456015700 -0.571544010000 -0.428044280000
  0.001945663400 -0.199269640000  0.067638584000
 -0.001113850100 -0.011766669000  0.622392990000
  0.000389911680 -0.002067575800  0.431514740000
 -0.000108893570  0.000294410720  0.060345976000
  0.000009255439 -0.000017129430  0.000321282600
    8    2
 56.452427000000  6.759068800000
        295.07100000
         91.71190000
         35.95070000
         15.47320000
          6.94878000
          3.14598000
          1.40090000
          0.57149000
  0.029351188000  0.012776464000
  0.157462880000  0.070921517000
  0.385316040000  0.172825750000
  0.450336140000  0.176003850000
  0.187237470000 -0.152488230000
  0.015699272000 -0.516053600000
  0.000883940690 -0.410344020000
 -0.000268137670 -0.090445954000
Spectral Representation Operator
Valence primitive basis
Exchange
End of Spectral Representation Operator

********************************************************************************
*         C.2.1.2. Alkaline Earth Elements
********************************************************************************

/Be.NR-AIMP.Huzinaga.5s1p.1s1p.ECP.2el.
S. Huzinaga, L. Seijo, Z. Barandiaran, M. Klobukowski. J. Chem. Phys. 86 (1987) 2132-2145. doi:10.1063/1.452111
BERYLLIUM (5s,1p) -> [1s,1p]
********************************************************************************
*core[He] val[2s]     (41/1*)=2s1p recommended
*BE-S(5/1)                     (41/1)
********************************************************************************
     2.0   1
* s-type functions
    5    1
         65.23184480
          9.74507696
          2.00464288
          0.15084819
       5132.90743e-5
 -0.013123519300
 -0.078926576900
 -0.209520426000
  0.623612626000
  0.462626019000
* p-type functions
    1    1
          0.16400000
  1.000000000000
********************************************************************************
* Core AIMP: BE-1S
*
* Local Potential Parameters: (ECP convention)
*                             A(AIMP)=-Zeff*A(ECP)
********************************************************************************
M1
  8
  2.2002068000e5  2.0793906000e4  3.3179723000e3  6.6520534000e2  1.5680300000e2 40.276502000000 11.365749000000  3.651855200000
  0.008196736500  0.014339920500  0.030891991500  0.062359775000  0.124491390000  0.257297895000  0.364005525000  0.138416765000
M2
  0
COREREP
 1.0
PROJOP
    0
   14    1
  9.465320800000
      39869.44400000
       5843.78490000
       1353.87480000
        390.76208000
        128.91355000
         46.83576500
         18.23844500
          7.46530070
          3.18850720
          1.42421680
          0.65378289
          0.23546536
        960.77389e-4
        399.79165e-4
  0.000026638308
  0.000208945210
  0.001057815900
  0.004352750100
  0.015368737000
  0.047076888000
  0.122472060000
  0.252443180000
  0.365696450000
  0.281142610000
  0.067230540000
  0.000982971940
 -0.000055594615
  0.000008445224
Spectral Representation Operator
Valence primitive basis
Exchange
End of Spectral Representation Operator

/Mg.NR-AIMP.Seijo.7s6p1d.1s2p1d.ECP.8el.
L. Seijo, Z. Barandiaran, S. Huzinaga. J. Chem. Phys. 94 (1991) 3762-3773. doi:10.1063/1.459748
MAGNESIUM (7s,6p,1d) -> [1s,2p,1d]
********************************************************************************
*core[Be] val[2p,3s]     (61/411*/1*)=2s3p1d recommended
*
* - d polarization function for Mg(++) included
*
*MG-PS(7/51/1)                 (61/411/1)
********************************************************************************
     8.0   2
* s-type functions
    7    1
        741.31172700
        111.98810200
         24.88971880
          2.20601623
       7878.24901e-4
       1081.50406e-4
       3931.85756e-5
  0.002809920040
  0.018549038100
  0.053244713200
 -0.156727027000
 -0.232454586000
  0.616247232000
  0.506402417000
* p-type functions
    6    2
         97.28158910
         22.42789270
          6.79554741
          2.22033243
       7131.26083e-4
          0.10100000
  0.014661720300  0.000000000000
  0.096358878000  0.000000000000
  0.309392193000  0.000000000000
  0.499458373000  0.000000000000
  0.312380449000  0.000000000000
  0.000000000000  1.000000000000
* d-type functions
    1    1
          3.44400000
  1.000000000000
********************************************************************************
* Core AIMP: MG-2S
*
* Local Potential Parameters: (ECP convention)
*                             A(AIMP)=-Zeff*A(ECP)
********************************************************************************
M1
  8
  1.7852498000e5  1.4932791000e4  2.2824226000e3  4.9180959000e2  1.3253378000e2 37.579497000000  6.808404600000  2.428000000000
  0.008741599000  0.016556165000  0.035920283750  0.070999386250  0.110491642500  0.065799897500  0.122456451250  0.069034573750
M2
  0
COREREP
 1.0
PROJOP
    0
   16    2
 98.063394000000  7.535376000000
     392037.18000000
      61881.24700000
      14148.41100000
       3962.54640000
       1265.04260000
        433.23167000
        155.66852000
         58.88964000
         23.38982500
          9.53346950
          3.92481280
          1.63576990
          0.69392902
          0.27201244
        993.08348e-4
        373.02644e-4
  0.000024084660 -0.000006090507
  0.000177429970 -0.000044785728
  0.000945630100 -0.000239557970
  0.004054039800 -0.001025926000
  0.015196278000 -0.003891689100
  0.052191888000 -0.013585306000
  0.152176340000 -0.042087001000
  0.330257430000 -0.103925750000
  0.412878540000 -0.182155620000
  0.176380330000 -0.109503270000
  0.005978373100  0.267592230000
  0.004389195000  0.576443880000
 -0.001706902300  0.309804430000
  0.000915748190  0.013097782000
 -0.000385585650  0.001191217000
  0.000114078590 -0.000465438840
Spectral Representation Operator
Valence primitive basis
Exchange
End of Spectral Representation Operator

/Ca.NR-AIMP.Seijo.9s7p5d.1s2p3d.ECP.8el.
L. Seijo, Z. Barandiaran, S. Huzinaga. J. Chem. Phys. 94 (1991) 3762-3773. doi:10.1063/1.459748
CALCIUM (9s,7p,5d) -> [1s,2p,3d]
********************************************************************************
*core[Mg] val[3p,4s] (81/511*/311)=2s3p3d recommended
*
* - d set from
*   L.G.M. Pettersson, P.E.M. Siegbahn, S. Ismail. Chem. Phys. 82 (1983) 355-368. doi:10.1016/0301-0104(83)85240-9
*
*CA-PS(9/61/311)               (81/511/311)
********************************************************************************
     8.0   2
* s-type functions
    9    1
       2143.02140000
        324.20298700
         73.07714470
          7.09208247
          3.30824653
       9683.38721e-4
       3992.29618e-4
       6242.60255e-5
       2506.16211e-5
 -0.001336828200
 -0.009033866620
 -0.027054028100
  0.101840640000
  0.079609387700
 -0.202609473000
 -0.356057799000
  0.701817157000
  0.455814734000
* p-type functions
    7    2
        142.61787300
         32.79998340
          9.59581583
          1.21591792
       4877.97825e-4
       1930.83098e-4
          0.05900000
 -0.017864090800  0.000000000000
 -0.101927294000  0.000000000000
 -0.223296538000  0.000000000000
  0.496308735000  0.000000000000
  0.494201258000  0.000000000000
  0.115336531000  0.000000000000
  0.000000000000  1.000000000000
* d-type functions
    5    3
          7.45500000
          1.86600000
          0.54500000
          0.16770000
          0.05890000
  0.062760000000  0.000000000000  0.000000000000
  0.241760000000  0.000000000000  0.000000000000
  0.410790000000  0.000000000000  0.000000000000
  0.000000000000  1.000000000000  0.000000000000
  0.000000000000  0.000000000000  1.000000000000
********************************************************************************
* Core AIMP: CA-3S
*
* Local Potential Parameters: (ECP convention)
*                             A(AIMP)=-Zeff*A(ECP)
********************************************************************************
M1
 11
  2.9363705000e5  3.7148554000e4  7.6052202000e3  1.9584898000e3  5.9466492000e2  2.0033982000e2 62.162330000000 22.896549000000 10.079705000000  2.164655100000  0.977700000000
  0.016530513750  0.023295347500  0.044341583750  0.080087902500  0.132488425000  0.159871000000  0.195270725000  0.402383087500  0.239699862500  0.144544362500  0.061487182500
M2
  0
COREREP
 1.0
PROJOP
    1
   19    3
  2.9872740000e2 33.645450000000  4.490636600000
    1253429.20000000
     220930.37000000
      50650.30200000
      15029.95800000
       4798.04170000
       1656.55180000
        608.38558000
        233.89711000
         94.30561500
         39.25740300
         16.29578700
          6.93682840
          3.04624320
          1.28880560
          0.54279396
          0.21781284
        984.06371e-4
          0.04124021
          0.01870773
  0.000018922595 -0.000005490902  0.000001894777
  0.000131051810 -0.000038067541  0.000013115377
  0.000670802490 -0.000194741670  0.000067248889
  0.002719006900 -0.000792174810  0.000272829910
  0.010575733000 -0.003094323900  0.001069896200
  0.035575420000 -0.010605420000  0.003659923800
  0.106492540000 -0.033070146000  0.011512247000
  0.254623240000 -0.088054740000  0.030844307000
  0.405524970000 -0.178410480000  0.064686309000
  0.290613580000 -0.198358340000  0.074854310000
  0.042835889000  0.136667460000 -0.055205654000
  0.001842971600  0.640894730000 -0.375085570000
 -0.000829760740  0.369012600000 -0.371271110000
  0.000646951880  0.017686156000  0.432500680000
 -0.000490734380  0.005945382000  0.745975790000
  0.000305425390 -0.002862920700  0.137691780000
 -0.000193261050  0.001914554300 -0.008642811400
  0.000090020294 -0.000900327930  0.002135095700
 -0.000027222704  0.000273615890 -0.000443134690
   11    1
 27.258382000000
       1656.55180000
        608.38558000
        233.89711000
         94.30561500
         39.25740300
         16.29578700
          6.93682840
          3.04624320
          1.28880560
          0.54279396
          0.21781284
  0.000734614810
  0.002756655700
  0.014042226000
  0.051852622000
  0.164280920000
  0.356624000000
  0.418242790000
  0.177621190000
  0.013199547000
  0.000696702660
 -0.000177149340
Spectral Representation Operator
Valence primitive basis
Exchange
End of Spectral Representation Operator

/Sr.NR-AIMP.Seijo.11s9p7d.1s2p1d.ECP.8el.
L. Seijo, Z. Barandiaran, S. Huzinaga. J. Chem. Phys. 94 (1991) 3762-3773. doi:10.1063/1.459748
STRONTIUM (11s,9p,7d) -> [1s,2p,1d]
********************************************************************************
*core[Zn] val[4p,5s]     (9,1,1/711*/411)=3s3p3d recommended
*
* - d function optimized in  Sr(+) (4d1-2D)
*
*SR-PSD(A1/81/7)               (A01/711/421)
********************************************************************************
     8.0   2
* s-type functions
   11    1
       7955.45113000
       1209.99538000
        276.68667600
         30.45062670
         15.11130900
          5.82396748
          2.86676445
       6469.71931e-4
       3014.32686e-4
       5188.38795e-5
       2145.64179e-5
  0.000645538248
  0.004420243500
  0.013725933300
 -0.052931313000
 -0.035830851100
  0.067306778000
  0.181788969000
 -0.249804523000
 -0.377701896000
  0.735841829000
  0.442328465000
* p-type functions
    9    2
        675.73539200
        158.52521700
         49.22504170
          7.33845663
          3.48282963
       8718.10251e-4
       3865.05939e-4
       1583.83903e-4
          0.04800000
  0.005900167910  0.000000000000
  0.037514416400  0.000000000000
  0.092294226100  0.000000000000
 -0.211908806000  0.000000000000
 -0.216496885000  0.000000000000
  0.445125293000  0.000000000000
  0.547438705000  0.000000000000
  0.149737445000  0.000000000000
  0.000000000000  1.000000000000
* d-type functions
    7    1
         81.91937370
         23.07403470
          7.64995799
          2.49433629
          1.16768631
       3573.03277e-4
          0.10133097
 -0.009074461000
 -0.045180040000
 -0.089893360000
 -0.064644420000
  0.182027700000
  0.465535380000
  0.600373840000
********************************************************************************
* Core AIMP: SR-3D
*
* Local Potential Parameters: (ECP convention)
*                             A(AIMP)=-Zeff*A(ECP)
********************************************************************************
M1
 12
  3.2519928000e5  4.4991532000e4  9.8379817000e3  2.6403724000e3  8.1449724000e2  2.4552921000e2 89.214409000000 31.954652000000 11.023408000000  4.976020600000  1.394026500000
  0.662760000000
  0.040209438750  0.053051818750  0.100448078750  0.176081250000  0.241889500000  0.336567512500  0.636588625000  0.361929850000  1.064520162500  0.517036150000  0.179075925000
  0.042601673750
M2
  0
COREREP
 1.0
PROJOP
    2
   12    4
  1.1673764000e3  1.6078234000e2 26.949998000000  3.793256900000
      16198.26500000
       3000.98840000
        851.63673000
        300.05355000
        120.86780000
         41.39026300
         18.09334100
          5.63346250
          2.71661690
          1.03242210
          0.50800035
          0.22500000
  0.021985036000 -0.006855398400  0.002892526400 -0.001044086100
  0.110091220000 -0.037559807000  0.015048243000 -0.005286963000
  0.314092820000 -0.116760520000  0.050286832000 -0.018192392000
  0.451583060000 -0.245261670000  0.103638950000 -0.036662041000
  0.233756980000 -0.147319790000  0.078077396000 -0.029700605000
  0.018402742000  0.501377870000 -0.345066190000  0.135223480000
 -0.002844538700  0.610210760000 -0.545670880000  0.221794010000
  0.001103822100  0.085608360000  0.546819200000 -0.285647220000
 -0.000816624810 -0.026703324000  0.683030200000 -0.628240830000
  0.000437111380  0.012358890000  0.076305446000  0.161763490000
 -0.000239561890 -0.006759177800 -0.008622462600  0.843877290000
  0.000059683133  0.001658770600  0.002041102400  0.286651410000
   10    2
  1.4599280000e2 21.399888000000
        814.05687000
        209.70191000
         72.70780000
         28.94139200
         11.74831900
          5.17741570
          2.34778850
          0.95183374
          0.42760001
          0.18300000
  0.031219786000 -0.013262935000
  0.167610890000 -0.073889245000
  0.419538520000 -0.201684790000
  0.441235780000 -0.204589850000
  0.124150520000  0.226794170000
 -0.002168924300  0.585397180000
  0.003900106400  0.314570380000
 -0.001669798000  0.029243055000
  0.000825653860 -0.001347253000
 -0.000241344490  0.000322430460
    6    1
 11.388770000000
        167.14322000
         51.05797300
         19.35444300
          7.86906040
          3.22700000
          1.24790000
  0.014236818000
  0.085452347000
  0.260597960000
  0.432761570000
  0.372524750000
  0.107018290000
Spectral Representation Operator
Valence primitive basis
Exchange
End of Spectral Representation Operator

/Ba.NR-AIMP.Seijo.13s11p8d.1s2p1d.ECP.8el.
L. Seijo, Z. Barandiaran, S. Huzinaga. J. Chem. Phys. 94 (1991) 3762-3773. doi:10.1063/1.459748
BARIUM (13s,11p,8d) -> [1s,2p,1d]
********************************************************************************
*core[Cd] val[5p,6s]     (A111/911*/611)=3s3p3d recommended
*
* - d function optimized in  Ba(+) (5d1-2D)
*
*BA-PSD(A3/A01/8)              (A111/911/611)
********************************************************************************
     8.0   2
* s-type functions
   13    1
      17626.90010000
       2684.44472000
        615.69717000
         78.44596350
         52.33208180
         15.86735060
          9.58130793
          3.48695236
          1.65714053
       6229.02319e-4
          0.25056281
       3805.85581e-5
       1630.91087e-5
 -0.000389738933
 -0.002691551660
 -0.008609323060
  0.017477136200
  0.034766993300
 -0.015060801500
 -0.147474890000
  0.080519729600
  0.300802030000
 -0.180123475000
 -0.560637929000
  0.825018805000
  0.363208809000
* p-type functions
   11    2
       1628.64054000
        384.71794100
        121.70140500
         18.57209220
          8.88909128
          3.93087330
          1.92983094
       6106.57731e-4
       2940.63359e-4
       1245.08644e-4
          0.03700000
 -0.003076076190  0.000000000000
 -0.020413085500  0.000000000000
 -0.053651970100  0.000000000000
  0.169201451000  0.000000000000
  0.091533150200  0.000000000000
 -0.278466445000  0.000000000000
 -0.338819142000  0.000000000000
  0.400920831000  0.000000000000
  0.605336451000  0.000000000000
  0.175830113000  0.000000000000
  0.000000000000  1.000000000000
* d-type functions
    8    1
        242.11443500
         70.74839360
         25.27568310
          4.62796532
          2.28200773
       4385.05018e-4
       1617.95396e-4
       5903.55543e-5
  0.004592554130
  0.025801059400
  0.052226658300
 -0.099268247200
 -0.121876242000
  0.315319120000
  0.525354768000
  0.351280478000
********************************************************************************
* Core AIMP: BA-4D
*
* Local Potential Parameters: (ECP convention)
*                             A(AIMP)=-Zeff*A(ECP)
********************************************************************************
M1
 12
  4.1770000000e5  6.6950000000e4  1.5970000000e4  4.4330000000e3  1.3650000000e3  4.1590000000e2  1.6384000000e2 47.467000000000 26.189000000000  4.742800000000  1.971400000000
  0.650680000000
  0.058866837500  0.069911237500  0.130582425000  0.227062587500  0.301400750000  0.507831987500  0.697817850000  0.734911712500  1.174472112500  1.485609750000  0.455594537500
  0.155938162500
M2
  0
COREREP
 1.0
PROJOP
    2
   15    5
  2.6441810000e3  4.1430818000e2 90.561342000000 19.112436000000  3.025154000000
      49809.29400000
       9725.33860000
       2561.98610000
        848.55088000
        328.60031000
        139.94988000
         62.78087300
         28.89307200
         13.44938100
          6.28889880
          2.94529130
          1.38000400
          0.64666282
          0.30302801
          0.14200000
  0.013366288000 -0.004404810900  0.001979259500 -0.000939374170  0.000366903200
  0.072282072000 -0.024394832000  0.011080178000 -0.005096172400  0.001988486600
  0.252216370000 -0.094755850000  0.043460853000 -0.020578639000  0.008043044400
  0.453647620000 -0.220653670000  0.105934230000 -0.049282937000  0.019278667000
  0.313744920000 -0.242419330000  0.125728110000 -0.062460836000  0.024586297000
  0.039638384000  0.198914430000 -0.125995870000  0.068050596000 -0.027104798000
  0.003467794000  0.682830360000 -0.638953690000  0.338972990000 -0.136690930000
 -0.002568411400  0.304798070000 -0.306894070000  0.215542330000 -0.091217417000
  0.001823617900  0.008028793600  0.888169170000 -0.857107980000  0.391823270000
 -0.001297133500  0.004623513300  0.512191210000 -0.662750590000  0.327851890000
  0.000865062630 -0.002989425200  0.001822802600  0.963719350000 -0.633329820000
 -0.000537896990  0.001595616200  0.015712426000  0.611495630000 -0.745442380000
  0.000303781190 -0.000885272320 -0.007865530600  0.015624351000  0.462673830000
 -0.000137528360  0.000403619870  0.003315596100  0.008641392500  0.854548950000
  0.000036120669 -0.000104019840 -0.000889824020 -0.001536015500  0.171097690000
   12    3
  3.9011176000e2 80.079338000000 15.098332000000
       1942.17310000
        502.24610000
        175.50127000
         71.79634900
         31.41293100
         14.07917100
          6.35677620
          2.87548120
          1.30121740
          0.58886271
          0.26648982
          0.12060000
  0.028571772000 -0.013607605000  0.006308078300
  0.158777370000 -0.080244394000  0.036564469000
  0.409162570000 -0.223158280000  0.106173860000
  0.437475450000 -0.242087320000  0.110019210000
  0.139166220000  0.227533810000 -0.149379590000
  0.003818596400  0.664357510000 -0.506224170000
  0.001406799800  0.256553830000  0.047036781000
 -0.000955674260  0.004118013900  0.752069420000
  0.000474595120  0.005043365200  0.337977310000
 -0.000273679130 -0.002534443300  0.012534979000
  0.000129997690  0.001179158600  0.004391880800
 -0.000038860264 -0.000354469510 -0.001233619200
    8    2
 60.804446000000  8.002728000000
        291.92248000
         90.42461300
         35.43989500
         15.35965600
          6.87923120
          3.10622600
          1.40456170
          0.63520000
  0.032601652000 -0.014592158000
  0.172251840000 -0.079264602000
  0.401657810000 -0.184809530000
  0.440074830000 -0.166843730000
  0.166919850000  0.196873010000
  0.010140035000  0.542291350000
  0.001304346100  0.354675610000
 -0.000460582540  0.074481737000
Spectral Representation Operator
Valence primitive basis
Exchange
End of Spectral Representation Operator

********************************************************************************
*         C.2.1.3. Group IIIA Elements
********************************************************************************

/B.NR-AIMP.Huzinaga.5s5p1d.1s1p1d.ECP.3el.
S. Huzinaga, L. Seijo, Z. Barandiaran, M. Klobukowski. J. Chem. Phys. 86 (1987) 2132-2145. doi:10.1063/1.452111
BORON (5s,5p,1d) -> [1s,1p,1d]
********************************************************************************
*core[He] val[2s,2p]     (41/311/1*)=2s3p1d recommended
*B-SP(5/5/1)                   (41/41/1)
********************************************************************************
     3.0   2
* s-type functions
    5    1
        111.57099800
         16.70882770
          3.52251744
          0.27434282
       9031.82185e-5
 -0.013349831200
 -0.083049251500
 -0.225942929000
  0.627975668000
  0.462945691000
* p-type functions
    5    1
         12.66875560
          2.75260256
          0.78237754
       2478.00856e-4
       7910.66519e-5
  0.012212356900
  0.075256697700
  0.268305708000
  0.504885495000
  0.366736008000
* d-type functions
    1    1
          0.38800000
  1.000000000000
********************************************************************************
* Core AIMP: B-1S
*
* Local Potential Parameters: (ECP convention)
*                             A(AIMP)=-Zeff*A(ECP)
********************************************************************************
M1
  7
  2.1513923000e5  1.9835800000e4  3.0548389000e3  5.7505226000e2  1.2079038000e2 27.817362000000  7.428552400000
  0.007050323000  0.012605634667  0.028059625333  0.061026773333  0.138448956667  0.266952373333  0.152522983333
M2
  0
COREREP
 1.0
PROJOP
    0
   14    1
 15.390613000000
      52671.04700000
       7957.45200000
       1821.48580000
        525.02748000
        174.90474000
         63.72072500
         24.67219700
         10.01800800
          4.23434400
          1.84420680
          0.76474042
          0.31422572
          0.12844228
        525.61458e-4
  0.000032735824
  0.000252282610
  0.001306466800
  0.005299620300
  0.018404924000
  0.056343646000
  0.145627140000
  0.291305760000
  0.384660940000
  0.227251140000
  0.025938077000
 -0.000343089320
  0.000305633560
 -0.000003583605
Spectral Representation Operator
Valence primitive basis
Exchange
End of Spectral Representation Operator

/Al.NR-AIMP.Huzinaga.7s6p1d.1s1p1d.ECP.3el.
S. Huzinaga, L. Seijo, Z. Barandiaran, M. Klobukowski. J. Chem. Phys. 86 (1987) 2132-2145. doi:10.1063/1.452111
ALUMINIUM (7s,6p,1d) -> [1s,1p,1d]
********************************************************************************
*core[Ne] val[3s,3p]     (61/411/1*)=2s3p1d recommended
*AL-SP(7/6/1)                  (61/51/1)
********************************************************************************
     3.0   2
* s-type functions
    7    1
        869.14539100
        131.41377100
         29.33143810
          2.73489161
          1.08903294
       1680.62507e-4
       6112.67922e-5
  0.003489715780
  0.023077513600
  0.066236014700
 -0.186881396000
 -0.270690882000
  0.666608379000
  0.475934213000
* p-type functions
    6    1
         41.12780350
          9.12258748
          2.40172268
       2221.56889e-4
       8312.32666e-5
       3278.31898e-5
 -0.013367451500
 -0.066023225600
 -0.122471280000
  0.360851755000
  0.532001726000
  0.231727331000
* d-type functions
    1    1
          0.19800000
  1.000000000000
********************************************************************************
* Core AIMP: AL-2P
*
* Local Potential Parameters: (ECP convention)
*                             A(AIMP)=-Zeff*A(ECP)
********************************************************************************
M1
  9
  3.2231636000e5  4.2989923000e4  8.3846495000e3  1.7585767000e3  3.9123867000e2 94.113283000000 19.503874000000  5.877198600000  2.175734800000
  0.024410849667  0.033404996667  0.071168633333  0.155752190000  0.338457166667  0.508127600000  0.673019933333  1.159772900000  0.369219033333
M2
  0
COREREP
 1.0
PROJOP
    1
   16    2
  1.1700209000e2  9.821294400000
     440776.56000000
      65831.35300000
      14631.36100000
       3973.70020000
       1265.91480000
        433.24269000
        155.60934000
         59.12170700
         23.58578700
          9.52684590
          3.89816020
          1.63754440
          0.70342483
          0.24683657
          0.09707972
        376.87043e-4
  0.000026216901 -0.000006820134
  0.000204470410 -0.000053092904
  0.001140542100 -0.000297278350
  0.004995317900 -0.001301204200
  0.018454917000 -0.004872933700
  0.063066758000 -0.016987282000
  0.178373660000 -0.051596905000
  0.362068870000 -0.122124100000
  0.393970860000 -0.195313920000
  0.127883570000 -0.060826660000
  0.000265296790  0.381938510000
  0.003720783000  0.580660250000
 -0.001399726500  0.189089950000
  0.000665917870 -0.000347081510
 -0.000332513330  0.001719612800
  0.000096711832 -0.000460534280
   11    1
  6.436428400000
        433.24269000
        155.60934000
         59.12170700
         23.58578700
          9.52684590
          3.89816020
          1.63754440
          0.70342483
          0.24683657
          0.09707972
        376.87043e-4
  0.001325169600
  0.005238395600
  0.024048459000
  0.084186850000
  0.226920910000
  0.379865910000
  0.361002700000
  0.138353950000
  0.009222911400
 -0.000293271950
  0.000257528840
Spectral Representation Operator
Valence primitive basis
Exchange
End of Spectral Representation Operator

/Ga.NR-AIMP.Huzinaga.9s8p4d.1s1p2d.ECP.3el.
S. Huzinaga, L. Seijo, Z. Barandiaran, M. Klobukowski. J. Chem. Phys. 86 (1987) 2132-2145. doi:10.1063/1.452111
GALLIUM (9s,8p,4d) -> [1s,1p,2d]
********************************************************************************
*core[Ar,3d] val[4s,4p]     (711/611/3o1*)=3s3p2d recommended
*
* - (3o) d orthogonality function by maximum overlap to the 3d core orbital
*
*GA-SP(9/8/31)                 (81/71/31)
********************************************************************************
     3.0   2
* s-type functions
    9    1
       5367.43057000
        811.36776700
        183.72307700
         18.64271540
          6.85234940
          3.79214027
          1.36842283
       1829.04361e-4
       6613.90405e-5
 -0.001476555960
 -0.010164972100
 -0.031635832000
  0.135953639000
  0.110786423000
 -0.214869401000
 -0.369813540000
  0.682578132000
  0.463086803000
* p-type functions
    8    1
        427.90530800
         99.75182520
         30.46240750
          4.17049455
          1.66752478
          0.27998301
       1060.68775e-4
       3900.14411e-5
  0.002821570520
  0.017621517200
  0.042636920600
 -0.101177621000
 -0.107937245000
  0.262815822000
  0.541523661000
  0.337412017000
* d-type functions
    4    2
         12.59740000
          3.02431000
          0.74767300
          0.20700000
  0.328088629000  0.000000000000
  0.598759454000  0.000000000000
  0.376038087000  0.000000000000
  0.000000000000  1.000000000000
********************************************************************************
* Core AIMP: GA-3D
*
* Local Potential Parameters: (ECP convention)
*                             A(AIMP)=-Zeff*A(ECP)
********************************************************************************
M1
 11
  6.0437301000e5  1.1690266000e5  2.8184217000e4  6.9584486000e3  1.7533081000e3  4.9201373000e2  1.3821712000e2 47.039636000000 10.176595000000  3.646514800000  1.134959100000
  0.054843553333  0.058395746667  0.117982286667  0.242728676667  0.486604933333  0.646611100000  0.994440966667  1.772790433333  1.794613866667  2.654289233333  0.510032533333
M2
  0
COREREP
 1.0
PROJOP
    2
   20    3
  7.5763512000e2 96.335172000000 12.787244000000
   13093818.00000000
    2275108.30000000
     559049.20000000
     158325.93000000
      45395.30000000
      13992.68900000
       4603.20050000
       1628.98630000
        625.09360000
        253.12274000
        106.70605000
         45.64096900
         19.94858500
          8.69939030
          3.80888050
          1.65148450
          0.71734771
          0.29177618
          0.12270162
        483.17547e-4
  0.000003134286 -0.000000971767  0.000000370191
  0.000020530829 -0.000006359209  0.000002429832
  0.000098796091 -0.000030649030  0.000011662164
  0.000470375730 -0.000145763340  0.000055725934
  0.002146593200 -0.000667359730  0.000254028910
  0.008666536900 -0.002704516100  0.001034900700
  0.031735877000 -0.010076474000  0.003844214600
  0.097089978000 -0.032083366000  0.012373952000
  0.234789250000 -0.086026446000  0.033359973000
  0.394800260000 -0.181438720000  0.073260474000
  0.316611330000 -0.222054500000  0.093552757000
  0.062237467000  0.090542578000 -0.040503809000
  0.000487678700  0.656322400000 -0.449522540000
  0.000122830870  0.400278760000 -0.389864970000
  0.000058202955  0.011418709000  0.510009370000
 -0.000128632470  0.012271729000  0.691023350000
  0.000072329984 -0.005930204500  0.144509460000
 -0.000040126920  0.003214290500 -0.002100347600
  0.000018712989 -0.001477701300  0.001351169800
 -0.000004971547  0.000392419260 -0.000258453200
   14    2
 84.986200000000  8.962682600000
       4603.20050000
       1628.98630000
        625.09360000
        253.12274000
        106.70605000
         45.64096900
         19.94858500
          8.69939030
          3.80888050
          1.65148450
          0.71734771
          0.29177618
          0.12270162
        483.17547e-4
  0.000665077850 -0.000252874560
  0.002719771400 -0.001031206400
  0.013605321000 -0.005231435100
  0.051726253000 -0.020165625000
  0.163641090000 -0.066542761000
  0.358999330000 -0.154209010000
  0.421803150000 -0.188714830000
  0.166257870000  0.092404350000
  0.007180444900  0.492916590000
  0.003858383100  0.444388510000
 -0.001483550200  0.117031750000
  0.000871926460  0.003973145500
 -0.000411898330  0.001018487800
  0.000120672290 -0.000108456210
    9    1
  2.384737400000
        253.12274000
        106.70605000
         45.64096900
         19.94858500
          8.69939030
          3.80888050
          1.65148450
          0.71734771
          0.29177618
  0.001413954200
  0.006391079500
  0.029553132000
  0.100496660000
  0.240795120000
  0.352046630000
  0.338178320000
  0.208700010000
  0.066498783000
Spectral Representation Operator
Valence primitive basis
Exchange
End of Spectral Representation Operator

/In.NR-AIMP.Barandiaran.11s10p7d.1s1p2d.ECP.13el.
Z. Barandiaran, L. Seijo. J. Chem. Phys. 101 (1994) 4049-4054. doi:10.1063/1.467522
INDIUM (11s,10p,7d) -> [1s,1p,2d]
********************************************************************************
*core[Kr] val[4d,5s,5p]     (911/811/511*)=3s3p3d recommended
*IN-DSP(A1/A0/61)              (911/811/511)
********************************************************************************
    13.0   2
* s-type functions
   11    1
      13660.58510000
       2069.79186000
        471.68773900
         51.98476550
         26.87048570
         10.93846840
          6.56690584
          1.65557087
       8277.88242e-4
       1467.54273e-4
       5516.01978e-5
  0.000859880232
  0.005974516250
  0.019137329900
 -0.079568097900
 -0.045704187000
  0.078349924900
  0.255938557000
 -0.316748873000
 -0.364069650000
  0.702222041000
  0.483310418000
* p-type functions
   10    1
       1186.56570000
        280.10328100
         88.52004640
         14.25809970
          8.03372804
          2.23814993
          1.00792683
       2059.00498e-4
       8439.09913e-5
       3306.15498e-5
 -0.001576728160
 -0.010226763000
 -0.025788397500
  0.060297293800
  0.053735493500
 -0.144410156000
 -0.148109364000
  0.283659211000
  0.548460790000
  0.306269809000
* d-type functions
    7    2
        164.30935800
         47.34794720
         16.41551780
          2.50525643
       9795.34931e-4
       3501.99546e-4
          0.16000000
 -0.018853594400  0.000000000000
 -0.101243150000  0.000000000000
 -0.195757711000  0.000000000000
  0.428293731000  0.000000000000
  0.509756819000  0.000000000000
  0.225607862000  0.000000000000
  0.000000000000  1.000000000000
********************************************************************************
* Core AIMP: IN-4P
*
* Local Potential Parameters: (ECP convention)
*                             A(AIMP)=-Zeff*A(ECP)
********************************************************************************
M1
 12
  4.2450100000e5  7.1900800000e4  1.8235300000e4  5.4224000000e3  1.8126800000e3  6.1862000000e2  2.2337800000e2 99.834400000000 28.923600000000 15.613730000000  3.309710000000
  1.567830000000
  0.028740099231  0.032181193846  0.057315771538  0.097550623077  0.140952984615  0.172049907692  0.332146530769  0.303641153846  0.517615215385  0.550427561538  0.403719415385
  0.132890315385
M2
  0
COREREP
 1.0
PROJOP
    2
   21    4
  1.9955981000e3  2.9878947000e2 59.247924000000  9.951976500000
   12952494.00000000
    2047619.70000000
     516732.89000000
     145875.37000000
      45088.18200000
      14384.72500000
       4961.25450000
       1851.57780000
        747.05874000
        322.07342000
        143.26168000
         65.47808700
         30.35690200
         14.15783600
          6.73937020
          3.09856980
          1.42244490
          0.64257575
          0.26445769
          0.12879178
        542.81246e-4
  0.000010839754 -0.000003499837  0.000001532450 -0.000000656702
  0.000071971018 -0.000023250904  0.000010179860 -0.000004358045
  0.000353907820 -0.000114302090  0.000050054520 -0.000021459629
  0.001554768200 -0.000503234640  0.000220378450 -0.000094326272
  0.006498509500 -0.002110620500  0.000925007650 -0.000396675010
  0.024994240000 -0.008232438800  0.003613930300 -0.001547493800
  0.080732303000 -0.027547428000  0.012157297000 -0.005221926300
  0.207789760000 -0.077735780000  0.034741028000 -0.014921844000
  0.368255490000 -0.168713440000  0.077749970000 -0.033727225000
  0.348401690000 -0.234209680000  0.114760280000 -0.050062443000
  0.107155790000 -0.023874313000  0.012756073000 -0.006461109500
  0.000911641330  0.548072900000 -0.408291350000  0.197005150000
  0.001955122600  0.531142530000 -0.598360880000  0.309384120000
 -0.001234325900  0.073698995000  0.332883310000 -0.202385220000
  0.000704242550  0.007435861700  0.878638930000 -0.931989100000
 -0.000429445890 -0.004262420400  0.171438690000  0.043257116000
  0.000260042700  0.002594703200  0.003689778100  0.951101980000
 -0.000141346170 -0.001578838300  0.000058673320  0.332109760000
  0.000078809176  0.000890907630  0.000809065860  0.008074183400
 -0.000040106827 -0.000457699860 -0.000481522830  0.000184547440
  0.000009460674  0.000108786050  0.000120627790  0.000091185617
   17    3
  2.7834211000e2 50.747114000000  7.013061100000
      14384.72500000
       4961.25450000
       1851.57780000
        747.05874000
        322.07342000
        143.26168000
         65.47808700
         30.35690200
         14.15783600
          6.73937020
          3.09856980
          1.42244490
          0.64257575
          0.26445769
          0.12879178
        542.81246e-4
          0.01748286
  0.000492617580 -0.000224640020  0.000091552034
  0.002206558400 -0.001007541100  0.000412852620
  0.011480123000 -0.005297210000  0.002163681200
  0.044114979000 -0.020722425000  0.008530309500
  0.138651340000 -0.067871925000  0.028038512000
  0.316835710000 -0.165161550000  0.069431242000
  0.419921410000 -0.231284150000  0.097613458000
  0.221472270000  0.014515489000 -0.021212615000
  0.024204894000  0.512939350000 -0.306650490000
  0.002420004200  0.488968280000 -0.315578120000
 -0.001268723000  0.087336529000  0.337657500000
  0.000692172990  0.002043466200  0.627004860000
 -0.000444426570  0.000498040430  0.250472150000
  0.000256494370  0.000088213020  0.017287405000
 -0.000150300840 -0.000078476078  0.000851716560
  0.000053187074  0.000027754060  0.000091664724
 -0.000012090097 -0.000007374077  0.000040085289
   12    1
 35.177919000000
       1851.57780000
        747.05874000
        322.07342000
        143.26168000
         65.47808700
         30.35690200
         14.15783600
          6.73937020
          3.09856980
          1.42244490
          0.64257575
          0.26445769
  0.000282591040
  0.001472149400
  0.008467170800
  0.037277210000
  0.125803460000
  0.295389730000
  0.415145360000
  0.285348420000
  0.066159500000
  0.000980048710
  0.000962859500
 -0.000252308330
Spectral Representation Operator
Valence primitive basis
Exchange
End of Spectral Representation Operator

/Tl.NR-AIMP.Barandiaran.13s12p8d5f.1s1p2d1f.ECP.13el.
Z. Barandiaran, L. Seijo. J. Chem. Phys. 101 (1994) 4049-4054. doi:10.1063/1.467522
THALLIUM (13s,12p,8d,5f) -> [1s,1p,2d,1f]
********************************************************************************
*core[Xe,4f] val[5d,6s,6p]     (11,1,1/9111/611*/4o1)=3s4p3d2f recommended
*
* - (5o) f orthogonality function is the 4f core orbital
*
*TL-DSP(A3/A2/71/5)            (A111/9111/611/41)
********************************************************************************
    13.0   3
* s-type functions
   13    1
     130390.70100000
      19371.13580000
       4323.39190000
       1194.24854000
        151.47749600
         70.11116970
         31.56639320
         23.27241670
          5.61693995
          1.34373903
       7276.23093e-4
       1347.42537e-4
       5112.75379e-5
 -0.000113919270
 -0.000880712556
 -0.004196104660
 -0.011198771600
  0.056865355100
  0.027991141000
 -0.110237036000
 -0.101448742000
  0.414496474000
 -0.373843318000
 -0.377844560000
  0.721201624000
  0.479250648000
* p-type functions
   12    1
       3562.50129000
        846.06863900
        272.20822500
         46.08720700
         19.92318700
         13.70438650
          6.51785148
          1.68539182
       6443.93218e-4
       3273.30202e-4
       1028.71911e-4
       3632.45808e-5
  0.000834524694
  0.005635945260
  0.015062560300
 -0.047484886400
 -0.047371453100
  0.073856778700
  0.107653903000
 -0.193064652000
 -0.201409847000
  0.178764464000
  0.589692431000
  0.437733512000
* d-type functions
    8    2
        631.37562900
        187.24519300
         69.26961700
         15.54158620
          8.98213658
          1.49833490
       4821.14854e-4
          0.14600000
  0.006943182920  0.000000000000
  0.042862490000  0.000000000000
  0.094320320600  0.000000000000
 -0.104405492000  0.000000000000
 -0.227399337000  0.000000000000
  0.613870982000  0.000000000000
  0.513255377000  0.000000000000
  0.000000000000  1.000000000000
* f-type functions
    5    1
         99.70000000
         33.26000000
         13.06000000
          5.25900000
          1.96400000
  0.064827554000
  0.267550600000
  0.465924430000
  0.395027680000
  0.123856940000
********************************************************************************
* Core AIMP: TL-4F
*
* Local Potential Parameters: (ECP convention)
*                             A(AIMP)=-Zeff*A(ECP)
********************************************************************************
M1
 14
  4.2296900000e6  1.7214300000e5  5.0151800000e4  1.6543800000e4  6.0039500000e3  2.2660400000e3  8.5345500000e2  3.8215000000e2  1.3728600000e2 72.100400000000 15.186700000000
  8.288580000000  2.687530000000  1.286670000000
  0.039917696923  0.038148174615  0.063893340000  0.104097353846  0.152441776923  0.191261215385  0.322478023077  0.446278623077  0.374718338462  0.969023692308  1.314090307692
  0.591709046154  0.498490261538  0.124221400000
M2
  0
COREREP
 1.0
PROJOP
    3
   15    5
  5.7030944000e3  9.6912035000e2  2.3430095000e2 53.766884000000  9.237553300000
     215100.00000000
      39070.00000000
      10748.00000000
       3633.00000000
       1406.90000000
        600.60000000
        210.60000000
         98.26000000
         38.04000000
         20.63000000
          8.70400000
          4.64900000
          1.89700000
          1.00160000
          0.46470000
  0.005882548400  0.002037195700  0.000944045980  0.000480325660  0.000208558340
  0.032994984000  0.010905807000  0.005314202500  0.002623171700  0.001140236700
  0.119609050000  0.043948516000  0.020745292000  0.010526897000  0.004574398800
  0.298056050000  0.118975050000  0.059510066000  0.029665370000  0.012916113000
  0.419553340000  0.242558460000  0.122775150000  0.063447765000  0.027689935000
  0.247779960000  0.166658590000  0.099489676000  0.050761729000  0.022308387000
  0.028082998000 -0.471548080000 -0.399532760000 -0.224800860000 -0.100785100000
 -0.007575225100 -0.622565500000 -0.702263380000 -0.458469500000 -0.212237630000
  0.004637055100 -0.113272470000  0.509590950000  0.543951220000  0.281357330000
 -0.003608745500  0.029085394000  0.792509950000  1.005262100000  0.554959530000
  0.002220212600 -0.012273584000  0.120564090000 -0.600702730000 -0.462489350000
 -0.001462052900  0.007411509600 -0.018695799000 -0.878647280000 -1.025928500000
  0.000744527500 -0.003511341700  0.006601651500 -0.093023100000  0.417091130000
 -0.000410437620  0.001881599600 -0.003368373100  0.010880539000  0.881690330000
  0.000095437837 -0.000433767900  0.000695160140 -0.002369484600  0.198951450000
   12    4
  9.3145344000e2  2.1639360000e2 45.835389000000  6.462739000000
       7416.00000000
       1923.00000000
        677.30000000
        275.60000000
        122.68000000
         53.19000000
         25.67000000
         11.12900000
          5.36600000
          2.20000000
          1.01490000
          0.42120000
  0.011130151000  0.005523408200  0.002810775700  0.001144243500
  0.069087878000  0.036950641000  0.018269684000  0.007510394000
  0.240609610000  0.132692880000  0.068387211000  0.028051457000
  0.443590970000  0.279402420000  0.143965260000  0.059719024000
  0.344658240000  0.127290580000  0.058162597000  0.022539677000
  0.067770208000 -0.494117800000 -0.412796640000 -0.187465190000
 -0.004956481300 -0.555661070000 -0.398426990000 -0.176759140000
  0.002396744800 -0.101613730000  0.538168610000  0.359990160000
 -0.001349963400  0.007872035800  0.638290000000  0.443003470000
  0.000622347600 -0.003498405200  0.086291154000 -0.444055140000
 -0.000297448120  0.001639763400 -0.006396135000 -0.656441980000
  0.000082378709 -0.000406049890  0.001706406800 -0.158144230000
   10    2
  1.8341698000e2 31.305918000000
        787.40000000
        252.10000000
        103.97000000
         48.16000000
         23.70400000
         12.29300000
          6.54300000
          3.90140000
          2.85250000
          1.44690000
  0.024830415000  0.013058093000
  0.137338810000  0.074180667000
  0.348101180000  0.191643290000
  0.434883510000  0.210682930000
  0.223687980000 -0.084290722000
  0.036311726000 -0.426913430000
  0.005362937100 -0.417168850000
 -0.002658669700 -0.118873570000
  0.001697856300 -0.078182226000
 -0.000189776230 -0.012494897000
    5    1
 11.570473000000
         99.70000000
         33.26000000
         13.06000000
          5.25900000
          1.96400000
  0.064827554000
  0.267550600000
  0.465924430000
  0.395027680000
  0.123856940000
Spectral Representation Operator
Valence primitive basis
Exchange
End of Spectral Representation Operator

********************************************************************************
*         C.2.1.4. Group IVA Elements
********************************************************************************

/C.NR-AIMP.Huzinaga.5s5p1d.1s1p1d.ECP.4el.
S. Huzinaga, L. Seijo, Z. Barandiaran, M. Klobukowski. J. Chem. Phys. 86 (1987) 2132-2145. doi:10.1063/1.452111
CARBON (5s,5p,1d) -> [1s,1p,1d]
********************************************************************************
*core[He] val[2s,2p]     (41/311/1*)=2s3p1d recommended
*C-SP(5/5/1)                   (41/311/1)
********************************************************************************
     4.0   2
* s-type functions
    5    1
        168.58141200
         25.31861740
          5.42555847
       4292.48738e-4
       1381.73911e-4
 -0.013482203600
 -0.085275911400
 -0.234339036000
  0.627947866000
  0.465616327000
* p-type functions
    5    1
         19.10122860
          4.22205507
          1.22354108
       3894.96213e-4
       1225.11242e-4
  0.013619641600
  0.084810669800
  0.286237854000
  0.501444170000
  0.348979676000
* d-type functions
    1    1
          0.60000000
  1.000000000000
********************************************************************************
* Core AIMP: C-1S
*
* Local Potential Parameters: (ECP convention)
*                             A(AIMP)=-Zeff*A(ECP)
********************************************************************************
M1
  7
  2.3303366000e5  2.2911775000e4  3.6747801000e3  7.0991865000e2  1.5264877000e2 36.739553000000 10.405237000000
  0.006064024250  0.010391557000  0.022866315750  0.049538790000  0.111067505000  0.198263790000  0.101808020000
M2
  0
COREREP
 1.0
PROJOP
    0
   14    1
 22.650970000000
      84441.82600000
      12759.35700000
       2871.25620000
        812.70822000
        267.55420000
         97.03604200
         37.28562600
         14.96924500
          6.24841090
          2.69177900
          1.11936660
          0.46209858
          0.18941458
        767.03306e-4
  0.000028825455
  0.000224506640
  0.001195795800
  0.004968561900
  0.017400959000
  0.053815033000
  0.142723350000
  0.293944490000
  0.392116220000
  0.224356390000
  0.023937518000
  0.000668134490
  0.000132567530
  0.000079383046
Spectral Representation Operator
Valence primitive basis
Exchange
End of Spectral Representation Operator

/Si.NR-AIMP.Huzinaga.7s6p1d.1s1p1d.ECP.4el.
S. Huzinaga, L. Seijo, Z. Barandiaran, M. Klobukowski. J. Chem. Phys. 86 (1987) 2132-2145. doi:10.1063/1.452111
SILICON (7s,6p,1d) -> [1s,1p,1d]
********************************************************************************
*core[Ne] val[3s,3p]     (61/411/1*)=2s3p1d recommended
*SI-SP(7/6/1)                  (61/411/1)
********************************************************************************
     4.0   2
* s-type functions
    7    1
       1019.38820000
        154.03267200
         34.40348050
          3.25620144
          1.39539327
          0.23467257
       8541.76856e-5
  0.003926155450
  0.026113519600
  0.075664801700
 -0.214878533000
 -0.287407059000
  0.686551746000
  0.469942081000
* p-type functions
    6    1
         52.17188610
         11.68495760
          3.16302756
       3196.19546e-4
       1218.88206e-4
        483.25919e-4
 -0.014783589900
 -0.075567568700
 -0.145757556000
  0.398060996000
  0.521482334000
  0.201606412000
* d-type functions
    1    1
          0.26200000
  1.000000000000
********************************************************************************
* Core AIMP: SI-2P
*
* Local Potential Parameters: (ECP convention)
*                             A(AIMP)=-Zeff*A(ECP)
********************************************************************************
M1
  9
  3.2166105000e5  4.3207704000e4  8.2749011000e3  1.7499335000e3  4.0057869000e2 99.579081000000 21.081645000000  6.788562600000  2.633394000000
  0.019932660750  0.027521627500  0.059055627500  0.127133505000  0.266990900000  0.380386825000  0.535311300000  0.845961450000  0.237706120000
M2
  0
COREREP
 1.0
PROJOP
    1
   16    2
  1.3762460000e2 12.312782000000
     631145.44000000
      89021.17600000
      18130.99600000
       4751.49840000
       1458.10950000
        508.45829000
        187.48272000
         71.84210400
         29.11579900
         12.40834200
          5.50177690
          2.49573520
          1.12045560
          0.38698802
          0.15306516
          0.05846127
  0.000020233255 -0.000005387144
  0.000180543090 -0.000048036206
  0.001083673100 -0.000288932080
  0.005004610400 -0.001336325800
  0.018817651000 -0.005082270200
  0.060324053000 -0.016661430000
  0.169890290000 -0.050122957000
  0.350747640000 -0.120459180000
  0.390551390000 -0.191879150000
  0.146320610000 -0.089848723000
  0.007910332200  0.265568560000
  0.002206755900  0.566537370000
 -0.000336545280  0.318964490000
  0.000186398130  0.014619352000
 -0.000097392764 -0.000432443900
  0.000025334274  0.000107811040
   11    1
  8.511646000000
        508.45829000
        187.48272000
         71.84210400
         29.11579900
         12.40834200
          5.50177690
          2.49573520
          1.12045560
          0.38698802
          0.15306516
          0.05846127
  0.001355360500
  0.005033847000
  0.023662514000
  0.079060858000
  0.199051660000
  0.332969550000
  0.364537120000
  0.197118140000
  0.021527641000
 -0.002633550300
  0.001021561000
Spectral Representation Operator
Valence primitive basis
Exchange
End of Spectral Representation Operator

/Ge.NR-AIMP.Huzinaga.9s8p4d.1s1p2d.ECP.4el.
S. Huzinaga, L. Seijo, Z. Barandiaran, M. Klobukowski. J. Chem. Phys. 86 (1987) 2132-2145. doi:10.1063/1.452111
GERMANIUM (9s,8p,4d) -> [1s,1p,2d]
********************************************************************************
*core[Ar,3d] val[4s,4p]     (711/611/3o1*)=3s3p2d recommended
*
* - (3o) d orthogonality function by maximum overlap to the 3d core orbital
*
********************************************************************************
*GE-SP(9/8/31)                 (711/611/31)
     4.0   2
* s-type functions
    9    1
       5719.40504000
        865.76337600
        196.33225400
         20.02453180
          8.27608211
          3.69062030
          1.51009337
       2315.57433e-4
       8521.71077e-5
 -0.001651336610
 -0.011356245900
 -0.035401663500
  0.151082837000
  0.088086113600
 -0.217222672000
 -0.399557286000
  0.708013535000
  0.458506828000
* p-type functions
    8    1
        457.76219400
        106.97527500
         32.80932780
          4.56503282
          1.86856166
       3521.71136e-4
       1410.27613e-4
       5384.00183e-5
  0.003460598430
  0.021597689700
  0.052206362100
 -0.123255365000
 -0.132453694000
  0.301195386000
  0.546545935000
  0.290453577000
* d-type functions
    4    2
         14.78090000
          3.63307000
          0.93854000
          0.24600000
  0.312889529000  0.000000000000
  0.599537247000  0.000000000000
  0.377203025000  0.000000000000
  0.000000000000  1.000000000000
********************************************************************************
* Core AIMP: GE-3D
*
* Local Potential Parameters: (ECP convention)
*                             A(AIMP)=-Zeff*A(ECP)
********************************************************************************
M1
 11
  6.6817088000e5  1.2478859000e5  2.8572403000e4  6.6295546000e3  1.7056954000e3  5.1286719000e2  1.4457550000e2 48.966203000000 10.877774000000  4.046275300000  1.323705900000
  0.041001972500  0.045281610000  0.095926730000  0.199869050000  0.364037325000  0.472747175000  0.782330525000  1.324682950000  1.346485525000  1.994685600000  0.332951550000
M2
  0
COREREP
 1.0
PROJOP
    2
   20    3
  8.1048716000e2  1.0429907000e2 14.380264000000
   14013885.00000000
    2455207.30000000
     609347.20000000
     175185.27000000
      50728.15800000
      15735.23000000
       5186.66000000
       1833.25230000
        703.27691000
        285.28140000
        120.76523000
         51.95154200
         22.83162300
         10.06620000
          4.43617380
          1.94167910
          0.85720670
          0.35428505
          0.15432947
        626.29121e-4
  0.000003107516 -0.000000966697  0.000000372197
  0.000020121204 -0.000006254255  0.000002413996
  0.000095008634 -0.000029571226  0.000011374333
  0.000444361790 -0.000138185310  0.000053362323
  0.002011256400 -0.000627283310  0.000241365640
  0.008080952400 -0.002529756600  0.000977726100
  0.029708682000 -0.009452351700  0.003645203200
  0.091577660000 -0.030273229000  0.011787290000
  0.223935830000 -0.081654152000  0.031994317000
[...]
    5    1
  7.043483400000
         75.09387300
         24.62158500
          9.43189230
          3.68003900
          1.32509300
  0.080556275000
  0.301622350000
  0.472334480000
  0.370119610000
  0.115270440000
Spectral Representation Operator
Valence primitive basis
Exchange
End of Spectral Representation Operator

/Pt.NR-AIMP.Casarrubios.13s10p9d5f.1s2p2d1f.ECP.16el.
M. Casarrubios, L. Seijo. J. Chem. Phys. 110 (1999) 784-796. doi:10.1063/1.478046
PLATINUM (13s,10p,9d,5f) -> [1s,2p,2d,1f]
********************************************************************************
*core[Cd,4f] val[5p,6s,5d]     (11,1,1/811*/6111d/4o1*)=3s3p4d2f recommended
*PT3D-PDS(A3/91/81/5)          (A111/811/6111/41)
********************************************************************************
    16.0   3
* s-type functions
   13    1
     182565.63000000
      24466.34700000
       5007.69742000
       1242.03664000
        134.19211900
         71.17644590
         21.98146330
         36.30671150
          5.49230159
          5.14604519
       8279.05514e-4
       7212.38304e-5
       2736.45737e-5
 -0.000055821418
 -0.000498518695
 -0.002738383030
 -0.009023329570
  0.045619450300
  0.016965198000
 -0.134645869000
 -0.031679179500
  0.153984293000
  0.146889891000
 -0.533963463000
  0.754792531000
  0.362937428000
* p-type functions
   10    2
       3377.95551000
        797.43789800
        253.82821700
         41.77296500
         20.12816520
         13.81565210
          6.32226920
          1.25119465
       4737.73778e-4
          0.08600000
 -0.003603980080  0.000000000000
 -0.024751532100  0.000000000000
 -0.067745922300  0.000000000000
  0.207943802000  0.000000000000
  0.162338669000  0.000000000000
 -0.195102057000  0.000000000000
 -0.505668253000  0.000000000000
  0.754375069000  0.000000000000
  0.394372565000  0.000000000000
  0.000000000000  1.000000000000
* d-type functions
    9    2
        581.79112200
        171.84897800
         63.30711460
         12.38863700
          6.59429723
          1.47756241
       5699.13431e-4
       1897.34584e-4
          0.06000000
  0.005926659550  0.000000000000
  0.036650292100  0.000000000000
  0.080881830400  0.000000000000
 -0.146523804000  0.000000000000
 -0.156531666000  0.000000000000
  0.404881601000  0.000000000000
  0.521312108000  0.000000000000
  0.274388335000  0.000000000000
  0.000000000000  1.000000000000
* f-type functions
    5    1
         79.36053300
         26.11177700
         10.05374300
          3.95226000
          1.42893000
  0.078899088000
  0.299188020000
  0.473708200000
  0.370439750000
  0.111847450000
********************************************************************************
* Core AIMP: PT(3D)-[CD]4F
*
* Local Potential Parameters: (ECP convention)
*                             A(AIMP)=-Zeff*A(ECP)
********************************************************************************
M1
 15
  6.2695502000e5  1.4792351000e5  4.8883568000e4  1.7796156000e4  6.9898572000e3  2.8679869000e3  1.1640365000e3  5.1946922000e2  2.6104865000e2 99.927874000000 60.880901000000
 13.807026000000  7.464733000000  2.964030000000  1.358167000000
  0.034471924375  0.028051292500  0.044798163125  0.070387037500  0.102905337500  0.129227981250  0.174683062500  0.309626031250  0.246496581250  0.396645381250  0.621999187500
  0.898656812500  0.599658162500  0.180110931250  0.037282141875
M2
  0
COREREP
 1.0
PROJOP
    3
   15    5
  5.2722245000e3  8.8802559000e2  2.1126706000e2 46.673229000000  7.210697100000
     165008.32000000
      29908.20000000
       8307.91300000
       2848.76140000
       1121.94050000
        491.56780000
        187.45497000
         87.64930000
         34.18290000
         18.33292900
          7.69415520
          4.00857730
          1.54723830
          0.80318004
          0.36335400
  0.007483324400  0.002561816500  0.001184115100  0.000596698070  0.000248151590
  0.041349479000  0.013811853000  0.006698570500  0.003268176500  0.001364661500
  0.144096150000  0.053252181000  0.025079181000  0.012616989000  0.005253716200
  0.332776230000  0.138206340000  0.069321117000  0.034147480000  0.014283902000
  0.411188980000  0.253630040000  0.128767360000  0.066333913000  0.027742502000
  0.194854580000  0.119718620000  0.075285999000  0.037156013000  0.015752186000
  0.017482319000 -0.506589440000 -0.434709850000 -0.241520750000 -0.103964550000
 -0.003625715400 -0.594572650000 -0.669084480000 -0.435728410000 -0.193087330000
  0.002030781000 -0.099733859000  0.563387950000  0.593053480000  0.292129840000
 -0.001540570700  0.024334806000  0.757331480000  0.947057570000  0.498991230000
  0.000898334620 -0.009747131800  0.104605430000 -0.664242680000 -0.486379800000
 -0.000554148600  0.005576262000 -0.014846587000 -0.830374280000 -0.922045510000
  0.000275481260 -0.002585067900  0.005250005100 -0.075650135000  0.473014970000
 -0.000156491160  0.001428774200 -0.002788567800  0.010765240000  0.809055290000
  0.000037142884 -0.000337154770  0.000590916130 -0.002291785500  0.183943520000
   12    3
  8.5202642000e2  1.9430332000e2 39.285548000000
      13571.49500000
       3507.80990000
       1239.34130000
        511.70048000
        232.27340000
        112.15293000
         54.78330400
         28.39739700
         14.69725500
          7.56533200
          3.86361300
          1.75010000
  0.003463314700  0.001758334700  0.000864284090
  0.023742516000  0.012109691000  0.005960358100
  0.097281213000  0.051858042000  0.025784473000
  0.258992910000  0.146493470000  0.073933478000
  0.407901380000  0.252550160000  0.130489000000
  0.306638080000  0.123899480000  0.053118008000
  0.075066207000 -0.364191630000 -0.283324820000
  0.000190052750 -0.564726270000 -0.471171480000
  0.001258485800 -0.209175110000  0.092880176000
 -0.000680453920 -0.015889829000  0.664465680000
  0.000206323950 -0.001424471700  0.407601440000
 -0.000041081608  0.000251180420  0.042214343000
   10    2
  1.6307571000e2 25.798471000000
       1504.42180000
        478.86096000
        195.51624000
         89.90335000
         44.10058200
         22.45379600
         11.45043000
          5.80150600
          2.85208000
          1.16086000
  0.005503952400  0.002832420400
  0.039434898000  0.020378899000
  0.148822150000  0.079326713000
  0.329648390000  0.176664890000
  0.408357560000  0.196597210000
  0.230473990000 -0.060269389000
  0.046333691000 -0.422026330000
  0.002532374700 -0.461191010000
  0.000334454120 -0.179119580000
 -0.000031537097 -0.014899524000
    5    1
  7.684326200000
         79.36053300
         26.11177700
         10.05374300
          3.95226000
          1.42893000
  0.078899088000
  0.299188020000
  0.473708200000
  0.370439750000
  0.111847450000
Spectral Representation Operator
Valence primitive basis
Exchange
End of Spectral Representation Operator

/Au.NR-AIMP.Casarrubios.13s10p9d5f.1s2p2d1f.ECP.17el.
M. Casarrubios, L. Seijo. J. Chem. Phys. 110 (1999) 784-796. doi:10.1063/1.478046
GOLD (13s,10p,9d,5f) -> [1s,2p,2d,1f]
********************************************************************************
*core[Cd,4f] val[5p,6s,5d]     (11,1,1/811*/6111d/4o1*)=3s3p4d2f recommended
*AU2S-PDS(A3/91/81/5)          (A111/811/6111/41)
********************************************************************************
    17.0   3
* s-type functions
   13    1
     231411.02300000
      26976.70820000
       5269.63393000
       1280.38645000
        143.12997400
         67.10746410
         32.50951330
         16.18747620
          5.85417719
          5.29525832
       8646.91338e-4
       7268.28816e-5
        275.10639e-4
 -0.000045241535
 -0.000469521434
 -0.002677369620
 -0.008997820810
  0.040993126500
  0.031485883100
 -0.107137685000
 -0.084877465500
  0.266643970000
  0.043281022700
 -0.515236854000
  0.739163681000
  0.374201929000
* p-type functions
   10    2
       3495.37992000
        824.81482900
        262.26499600
         42.35591610
         19.75153910
         13.32255540
          6.51275628
          1.32576933
       5036.40306e-4
          0.08900000
 -0.003631414270  0.000000000000
 -0.025037010200  0.000000000000
 -0.069134870800  0.000000000000
  0.223351815000  0.000000000000
  0.142514711000  0.000000000000
 -0.201274451000  0.000000000000
 -0.502056542000  0.000000000000
  0.757741165000  0.000000000000
  0.394781089000  0.000000000000
  0.000000000000  1.000000000000
* d-type functions
    9    2
        598.95817200
        176.83068200
         65.24127960
         13.04554210
          7.04496641
          1.56232306
          0.60673711
       2044.41449e-4
          0.06210000
  0.006121176840  0.000000000000
  0.037922524800  0.000000000000
  0.083413230000  0.000000000000
 -0.144631972000  0.000000000000
 -0.165906058000  0.000000000000
  0.417794431000  0.000000000000
  0.517671061000  0.000000000000
  0.261289054000  0.000000000000
  0.000000000000  1.000000000000
* f-type functions
    5    1
         84.15655900
         27.79654100
         10.76481000
          4.26794700
          1.55809810
  0.076582313000
  0.294858710000
  0.473782630000
  0.372432400000
  0.110644090000
********************************************************************************
* Core AIMP: AU(2S)-[CD]4F
*
* Local Potential Parameters: (ECP convention)
*                             A(AIMP)=-Zeff*A(ECP)
********************************************************************************
M1
 15
  6.9317692000e5  1.7312740000e5  6.0017718000e4  2.2638546000e4  9.0668432000e3  3.7958889000e3  1.5771318000e3  6.7092092000e2  3.2595235000e2  1.1913398000e2 65.817691000000
 14.625726000000  8.138888000000  3.251955000000  1.468040000000
  0.030905974118  0.023648625882  0.036889551765  0.057679508824  0.086203447059  0.112933729412  0.141539876471  0.255298041176  0.295081817647  0.303589452941  0.685978058824
  0.804557294118  0.599575705882  0.174546076471  0.038631697059
M2
  0
COREREP
 1.0
PROJOP
    3
   15    5
  5.4136660000e3  9.1436505000e2  2.1852159000e2 48.707536000000  7.617656600000
     166331.48000000
      30413.25300000
       8463.84260000
       2904.38920000
       1144.77930000
        502.15116000
        192.28808000
         89.99860600
         35.14644100
         18.85162500
          7.90287990
          4.13673920
          1.59039840
          0.80881104
          0.35890900
  0.007602783800  0.002603569000  0.001204974200  0.000609912800  0.000255338700
  0.041666990000  0.013934059000  0.006769098500  0.003311909400  0.001402506600
  0.145077190000  0.053668525000  0.025311152000  0.012788284000  0.005366221500
  0.334012250000  0.139074640000  0.069892475000  0.034532043000  0.014645479000
  0.410625510000  0.254101720000  0.129239380000  0.066897339000  0.028175266000
  0.192959720000  0.118020520000  0.074602634000  0.036824728000  0.015971591000
  0.017185746000 -0.507370830000 -0.436946600000 -0.243627440000 -0.106427880000
 -0.003529549500 -0.593913260000 -0.669367970000 -0.438504670000 -0.195929130000
  0.001971143400 -0.099467681000  0.567115390000  0.602519250000  0.299053060000
 -0.001492287800  0.024222726000  0.755965380000  0.947167450000  0.508909550000
  0.000869659720 -0.009685509000  0.103937520000 -0.677867510000 -0.512036040000
 -0.000532840420  0.005508346400 -0.015033919000 -0.823551190000 -0.927531110000
  0.000253890990 -0.002449480300  0.005036065800 -0.072263645000  0.538683390000
 -0.000140471010  0.001316992300 -0.002620976900  0.009975616600  0.791015030000
  0.000033476048 -0.000311961600  0.000560885510 -0.002175327500  0.152239250000
   12    3
  8.7781210000e2  2.0124513000e2 41.141324000000
      14831.78900000
       3818.44060000
       1346.11270000
        554.37727000
        250.94143000
        120.85049000
         59.01129800
         30.58564100
         15.87591300
          8.13542820
          4.14873330
          1.88041000
  0.003120847900  0.001585720500  0.000784639410
  0.021624873000  0.011042196000  0.005449204200
  0.089960271000  0.047887331000  0.023925034000
  0.245785820000  0.138658840000  0.070133797000
  0.403173340000  0.249048630000  0.129316640000
  0.322275580000  0.145991630000  0.066504887000
  0.086251320000 -0.329361690000 -0.257246750000
  0.000810518040 -0.574914540000 -0.484619890000
  0.001468997600 -0.234002460000  0.042633839000
 -0.000778982180 -0.020384713000  0.660995620000
  0.000242082220 -0.001351141500  0.435799050000
 -0.000048546045  0.000245693870  0.047614596000
   10    2
  1.6943759000e2 27.310991000000
       1716.83050000
        547.86190000
        224.53506000
        103.70521000
         51.08857800
         26.21528900
         13.50105100
          6.91181500
          3.48050100
          1.58044620
  0.004408967800  0.002287721300
  0.032215990000  0.016724556000
  0.125971750000  0.067465043000
  0.297207960000  0.160649710000
  0.406592480000  0.206720830000
  0.270279950000  0.006336076700
  0.069049941000 -0.365268980000
  0.004744589100 -0.486205570000
  0.000512685940 -0.235351330000
 -0.000014236383 -0.029752739000
    5    1
  8.656689400000
         84.15655900
         27.79654100
         10.76481000
          4.26794700
          1.55809810
  0.076582313000
  0.294858710000
  0.473782630000
  0.372432400000
  0.110644090000
Spectral Representation Operator
Valence primitive basis
Exchange
End of Spectral Representation Operator

/Hg.NR-AIMP.Casarrubios.13s10p9d5f.1s2p2d1f.ECP.18el.
M. Casarrubios, L. Seijo. J. Chem. Phys. 110 (1999) 784-796. doi:10.1063/1.478046
MERCURY (13s,10p,9d,5f) -> [1s,2p,2d,1f]
********************************************************************************
*core[Cd,4f] val[5p,6s,5d]     (11,1,1/811*/6111d/4o1*)=3s3p4d2f recommended
*HG1S-PDS(A3/91/81/5)          (A111/811/6111/41)
********************************************************************************
    18.0   3
* s-type functions
   13    1
     178598.30100000
      24578.67710000
       5129.71022000
       1282.27415000
        151.25965600
         69.42406190
         34.03737110
         16.28530690
          6.16488347
          5.18914748
       9376.08671e-4
       9398.57525e-5
       3501.34788e-5
 -0.000068288923
 -0.000587104767
 -0.003159516570
 -0.010281654200
  0.044222637000
  0.042705128400
 -0.127853552000
 -0.099431865400
  0.299897294000
  0.063893487400
 -0.594018676000
  0.753202662000
  0.383760361000
* p-type functions
   10    2
       3601.67046000
        848.64262800
        269.55869300
         43.87115470
         21.77418590
         13.81525130
          6.83694118
          1.40055949
       5426.20667e-4
          0.09300000
 -0.003706519210  0.000000000000
 -0.025663000800  0.000000000000
 -0.071058446400  0.000000000000
  0.224566737000  0.000000000000
  0.128668046000  0.000000000000
 -0.172741736000  0.000000000000
 -0.525456174000  0.000000000000
  0.768110431000  0.000000000000
  0.385401261000  0.000000000000
  0.000000000000  1.000000000000
* d-type functions
    9    2
        622.58332100
        183.49209900
         67.63963600
         13.39307930
          7.22407681
          1.70025409
       6860.38974e-4
       2436.10143e-4
          0.07620000
  0.006409319410  0.000000000000
  0.040097916400  0.000000000000
  0.089036075900  0.000000000000
 -0.159705750000  0.000000000000
 -0.171926058000  0.000000000000
  0.422347295000  0.000000000000
  0.520557581000  0.000000000000
  0.239227763000  0.000000000000
  0.000000000000  1.000000000000
* f-type functions
    5    1
         89.54024200
         29.69743600
         11.57466700
          4.63174400
          1.71578700
  0.073680191000
  0.288745930000
  0.472586730000
  0.376056610000
  0.111490580000
********************************************************************************
* Core AIMP: HG(1S)-[CD]4F
*
* Local Potential Parameters: (ECP convention)
*                             A(AIMP)=-Zeff*A(ECP)
********************************************************************************
M1
 15
  6.9558602000e5  1.7136251000e5  5.8491668000e4  2.1755856000e4  8.6707672000e3  3.6248069000e3  1.5075265000e3  6.5443622000e2  3.2368965000e2  1.1983527000e2 67.622901000000
 15.057726000000  8.405963000000  3.379420000000  1.566477000000
  0.029688446667  0.023070097222  0.036485949444  0.057068438889  0.084418605556  0.108674250000  0.137212322222  0.247225405556  0.266408244444  0.292200533333  0.637317277778
  0.779353166667  0.551770983333  0.158277900000  0.035272835000
M2
  0
COREREP
 1.0
PROJOP
    3
   15    5
  5.5573604000e3  9.4147010000e2  2.2627321000e2 51.146770000000  8.364036800000
     175599.45000000
      32197.31300000
       8994.24100000
       3092.70270000
       1220.92170000
        535.21263000
        199.79441000
         93.47751300
         36.59890500
         19.70567300
          8.31375390
          4.39614480
          1.75513790
          0.91469905
          0.41831100
  0.007328962400  0.002515802500  0.001167253100  0.000591695380  0.000252634650
  0.040001693000  0.013352159000  0.006490338900  0.003192193800  0.001369070300
  0.139309950000  0.051500931000  0.024330124000  0.012317447000  0.005266036000
  0.324658840000  0.133868600000  0.067222373000  0.033378502000  0.014340284000
  0.410986630000  0.250249350000  0.127303270000  0.065914933000  0.028304367000
  0.207242000000  0.131575810000  0.081418441000  0.040854767000  0.017784509000
  0.020422472000 -0.496668780000 -0.425403480000 -0.238500840000 -0.105522950000
 -0.004741059000 -0.602331030000 -0.681222370000 -0.446142680000 -0.203246710000
  0.002767369200 -0.103899120000  0.542693630000  0.576546860000  0.292505280000
 -0.002117137000  0.025362133000  0.772620600000  0.976326550000  0.531451060000
  0.001273438400 -0.010444110000  0.111803350000 -0.637996330000 -0.485080840000
 -0.000812650210  0.006146760900 -0.016587280000 -0.852970040000 -0.980484960000
  0.000405473040 -0.002855444100  0.005789690000 -0.083541907000  0.462527420000
 -0.000224396680  0.001535334100 -0.002985250100  0.010457763000  0.842577790000
  0.000052748527 -0.000358374830  0.000623901910 -0.002307265300  0.185321290000
   12    3
  9.0436061000e2  2.0868154000e2 43.397867000000
      15921.69800000
       4093.32010000
       1438.66070000
        590.93629000
        266.93736000
        128.33514000
         62.72249500
         32.52027900
         16.92591700
          8.65847010
          4.42488530
          2.02472000
  0.002888337300  0.001468768100  0.000731089430
  0.020181207000  0.010320210000  0.005108610700
  0.085117017000  0.045283271000  0.022728130000
  0.236761510000  0.133423230000  0.067681672000
  0.399177710000  0.246206000000  0.128420870000
  0.332553360000  0.160417050000  0.075382083000
  0.094590097000 -0.304008620000 -0.238909760000
  0.001531869800 -0.579735590000 -0.492197150000
  0.001569966800 -0.252698180000  0.006001050400
 -0.000827689090 -0.024282088000  0.654831420000
  0.000261141080 -0.001269051100  0.456729990000
 -0.000052690149  0.000236047370  0.053263072000
   10    2
  1.7629070000e2 29.219232000000
       1811.95050000
        577.91881000
        236.56341000
        109.19877000
         53.80980900
         27.64128700
         14.26249400
          7.32297300
          3.70375000
          1.69857000
  0.004170565800  0.002178646200
  0.030762414000  0.016072761000
  0.121808750000  0.065643923000
  0.291502150000  0.158730050000
  0.405908950000  0.209097570000
  0.277116230000  0.016735108000
  0.073474101000 -0.357197980000
  0.005244621100 -0.490141810000
  0.000530872630 -0.241891970000
 -0.000019461842 -0.031341354000
    5    1
 10.024755000000
         89.54024200
         29.69743600
         11.57466700
          4.63174400
          1.71578700
  0.073680191000
  0.288745930000
  0.472586730000
  0.376056610000
  0.111490580000
Spectral Representation Operator
Valence primitive basis
Exchange
End of Spectral Representation Operator
