************************************************************************
* This file is part of OpenMolcas.                                     *
*                                                                      *
* OpenMolcas is free software; you can redistribute it and/or modify   *
* it under the terms of the GNU Lesser General Public License, v. 2.1. *
* OpenMolcas is distributed in the hope that it will be useful, but it *
* is provided "as is" and without any express or implied warranties.   *
* For more details see the full text of the license in the file        *
* LICENSE or in <http://www.gnu.org/licenses/>.                        *
************************************************************************
! Elements                             References
! --------                             ----------
! H C N O F: Frank Jensen, Polarization consistent basis sets: Principles, J. Chem. Phys. 115, 9113 (2001).
! H C N O F: Frank Jensen, Polarization consistent basis sets. II. Estimating the Kohn-Sham basis set limit, J. Chem. Phys. 116, 7372 (2002).
! Si P S Cl: Frank Jensen, Trygve Helgaker, Polarization consistent basis sets. V. The elements Si-Cl, J. Chem. Phys. 121, 3463 (2004).
! He Li Be B Ne Na Mg Al Ar: Frank Jensen, Polarization consistent basis sets. VI. The elements He, Li, Be, B, Ne, Na, Mg, Al, Ar, J. Phys. Chem. A 111 (44), 11198 -11204, 2007
!



!
! BASIS SET = pc-4
!
/H.PC-4.Jensen.11s6p3d2f1g.7s6p3d2f1g.
HYDROGEN       (11s,6p,3d,2f,1g) -> [7s,6p,3d,2f,1g]
HYDROGEN       (11s,6p,3d,2f,1g) -> [7s,6p,3d,2f,1g]
          1.   4
* S-type functions
    11    7
              0.307970E+04
              0.461520E+03
              0.105060E+03
              0.297640E+02
              0.971830E+01
              0.351790E+01
              0.137700E+01
              0.568310E+00
              0.243410E+00
              0.105050E+00
              0.441980E-01
      0.234730E-03           0.000000E+00           0.000000E+00           0.000000E+00           0.000000E+00           0.000000E+00           0.000000E+00
      0.182450E-02           0.000000E+00           0.000000E+00           0.000000E+00           0.000000E+00           0.000000E+00           0.000000E+00
      0.959330E-02           0.000000E+00           0.000000E+00           0.000000E+00           0.000000E+00           0.000000E+00           0.000000E+00
      0.404610E-01           0.000000E+00           0.000000E+00           0.000000E+00           0.000000E+00           0.000000E+00           0.000000E+00
      0.146070E+00           0.000000E+00           0.000000E+00           0.000000E+00           0.000000E+00           0.000000E+00           0.000000E+00
      0.000000E+00           0.100000E+01           0.000000E+00           0.000000E+00           0.000000E+00           0.000000E+00           0.000000E+00
      0.000000E+00           0.000000E+00           0.100000E+01           0.000000E+00           0.000000E+00           0.000000E+00           0.000000E+00
      0.000000E+00           0.000000E+00           0.000000E+00           0.100000E+01           0.000000E+00           0.000000E+00           0.000000E+00
      0.000000E+00           0.000000E+00           0.000000E+00           0.000000E+00           0.100000E+01           0.000000E+00           0.000000E+00
      0.000000E+00           0.000000E+00           0.000000E+00           0.000000E+00           0.000000E+00           0.100000E+01           0.000000E+00
      0.000000E+00           0.000000E+00           0.000000E+00           0.000000E+00           0.000000E+00           0.000000E+00           0.100000E+01
* P-type functions
    6    6
              0.300000E+02
              0.660000E+01
              0.210000E+01
              0.950000E+00
              0.450000E+00
              0.150000E+00
      0.100000E+01           0.000000E+00           0.000000E+00           0.000000E+00           0.000000E+00           0.000000E+00
      0.000000E+00           0.100000E+01           0.000000E+00           0.000000E+00           0.000000E+00           0.000000E+00
      0.000000E+00           0.000000E+00           0.100000E+01           0.000000E+00           0.000000E+00           0.000000E+00
      0.000000E+00           0.000000E+00           0.000000E+00           0.100000E+01           0.000000E+00           0.000000E+00
      0.000000E+00           0.000000E+00           0.000000E+00           0.000000E+00           0.100000E+01           0.000000E+00
      0.000000E+00           0.000000E+00           0.000000E+00           0.000000E+00           0.000000E+00           0.100000E+01
* D-type functions
    3    3
              0.210000E+01
              0.700000E+00
              0.300000E+00
      0.100000E+01           0.000000E+00           0.000000E+00
      0.000000E+00           0.100000E+01           0.000000E+00
      0.000000E+00           0.000000E+00           0.100000E+01
* F-type functions
    2    2
              0.250000E+01
              0.900000E+00
      0.100000E+01           0.000000E+00
      0.000000E+00           0.100000E+01
* G-type functions
    1    1
              0.320000E+01
      0.100000E+01
/He.PC-4.Jensen.11s6p3d2f1g.7s6p3d2f1g.
HELIUM       (11s,6p,3d,2f,1g) -> [7s,6p,3d,2f,1g]
HELIUM       (11s,6p,3d,2f,1g) -> [7s,6p,3d,2f,1g]
          2.   4
* S-type functions
    11    7
              0.878020E+04
              0.131560E+04
              0.299460E+03
              0.848330E+02
              0.276910E+02
              0.100080E+02
              0.389240E+01
              0.158190E+01
              0.656980E+00
              0.264590E+00
              0.105850E+00
      0.146640E-02           0.000000E+00           0.000000E+00           0.000000E+00           0.000000E+00           0.000000E+00           0.000000E+00
      0.113950E-01           0.000000E+00           0.000000E+00           0.000000E+00           0.000000E+00           0.000000E+00           0.000000E+00
      0.598190E-01           0.000000E+00           0.000000E+00           0.000000E+00           0.000000E+00           0.000000E+00           0.000000E+00
      0.250890E+00           0.000000E+00           0.000000E+00           0.000000E+00           0.000000E+00           0.000000E+00           0.000000E+00
      0.891350E+00           0.000000E+00           0.000000E+00           0.000000E+00           0.000000E+00           0.000000E+00           0.000000E+00
      0.000000E+00           0.100000E+01           0.000000E+00           0.000000E+00           0.000000E+00           0.000000E+00           0.000000E+00
      0.000000E+00           0.000000E+00           0.100000E+01           0.000000E+00           0.000000E+00           0.000000E+00           0.000000E+00
      0.000000E+00           0.000000E+00           0.000000E+00           0.100000E+01           0.000000E+00           0.000000E+00           0.000000E+00
      0.000000E+00           0.000000E+00           0.000000E+00           0.000000E+00           0.100000E+01           0.000000E+00           0.000000E+00
      0.000000E+00           0.000000E+00           0.000000E+00           0.000000E+00           0.000000E+00           0.100000E+01           0.000000E+00
      0.000000E+00           0.000000E+00           0.000000E+00           0.000000E+00           0.000000E+00           0.000000E+00           0.100000E+01
* P-type functions
    6    6
              0.405000E+02
              0.890000E+01
              0.285000E+01
              0.130000E+01
              0.600000E+00
              0.200000E+00
      0.100000E+01           0.000000E+00           0.000000E+00           0.000000E+00           0.000000E+00           0.000000E+00
      0.000000E+00           0.100000E+01           0.000000E+00           0.000000E+00           0.000000E+00           0.000000E+00
      0.000000E+00           0.000000E+00           0.100000E+01           0.000000E+00           0.000000E+00           0.000000E+00
      0.000000E+00           0.000000E+00           0.000000E+00           0.100000E+01           0.000000E+00           0.000000E+00
      0.000000E+00           0.000000E+00           0.000000E+00           0.000000E+00           0.100000E+01           0.000000E+00
      0.000000E+00           0.000000E+00           0.000000E+00           0.000000E+00           0.000000E+00           0.100000E+01
* D-type functions
    3    3
              0.370000E+01
              0.120000E+01
              0.500000E+00
      0.100000E+01           0.000000E+00           0.000000E+00
      0.000000E+00           0.100000E+01           0.000000E+00
      0.000000E+00           0.000000E+00           0.100000E+01
* F-type functions
    2    2
              0.410000E+01
              0.150000E+01
      0.100000E+01           0.000000E+00
      0.000000E+00           0.100000E+01
* G-type functions
    1    1
              0.465000E+01
      0.100000E+01
/Li.PC-4.Jensen.19s8p3d2f1g.8s4p3d2f1g.
LITHIUM       (19s,8p,3d,2f,1g) -> [8s,4p,3d,2f,1g]
LITHIUM       (19s,8p,3d,2f,1g) -> [8s,4p,3d,2f,1g]
          3.   4
* S-type functions
    19    8
              0.706810E+05
              0.135940E+05
              0.310040E+04
              0.826460E+03
              0.253760E+03
              0.884510E+02
              0.344930E+02
              0.148310E+02
              0.692990E+01
              0.346780E+01
              0.183160E+01
              0.100630E+01
              0.566780E+00
              0.322540E+00
              0.182770E+00
              0.101640E+00
              0.546660E-01
              0.280250E-01
              0.134970E-01
      0.543830E-05           0.000000E+00           0.000000E+00           0.000000E+00           0.000000E+00           0.000000E+00           0.000000E+00           0.000000E+00
      0.332770E-04          -0.113820E-06           0.000000E+00           0.000000E+00           0.000000E+00           0.000000E+00           0.000000E+00           0.000000E+00
      0.191750E-03           0.171230E-06           0.000000E+00           0.000000E+00           0.000000E+00           0.000000E+00           0.000000E+00           0.000000E+00
      0.896860E-03          -0.357470E-05           0.000000E+00           0.000000E+00           0.000000E+00           0.000000E+00           0.000000E+00           0.000000E+00
      0.344770E-02           0.859400E-05           0.000000E+00           0.000000E+00           0.000000E+00           0.000000E+00           0.000000E+00           0.000000E+00
      0.114350E-01          -0.555670E-04           0.000000E+00           0.000000E+00           0.000000E+00           0.000000E+00           0.000000E+00           0.000000E+00
      0.309570E-01           0.282130E-03           0.000000E+00           0.000000E+00           0.000000E+00           0.000000E+00           0.000000E+00           0.000000E+00
      0.732370E-01          -0.455940E-03           0.000000E+00           0.000000E+00           0.000000E+00           0.000000E+00           0.000000E+00           0.000000E+00
      0.126680E+00           0.524910E-02           0.000000E+00           0.000000E+00           0.000000E+00           0.000000E+00           0.000000E+00           0.000000E+00
      0.214230E+00          -0.487050E-02           0.000000E+00           0.000000E+00           0.000000E+00           0.000000E+00           0.000000E+00           0.000000E+00
      0.178570E+00           0.468310E-01           0.000000E+00           0.000000E+00           0.000000E+00           0.000000E+00           0.000000E+00           0.000000E+00
      0.284920E+00          -0.322820E-01           0.000000E+00           0.000000E+00           0.000000E+00           0.000000E+00           0.000000E+00           0.000000E+00
      0.000000E+00           0.102960E+00           0.000000E+00           0.000000E+00           0.000000E+00           0.000000E+00           0.000000E+00           0.000000E+00
      0.000000E+00           0.000000E+00           0.100000E+01           0.000000E+00           0.000000E+00           0.000000E+00           0.000000E+00           0.000000E+00
      0.000000E+00           0.000000E+00           0.000000E+00           0.100000E+01           0.000000E+00           0.000000E+00           0.000000E+00           0.000000E+00
      0.000000E+00           0.000000E+00           0.000000E+00           0.000000E+00           0.100000E+01           0.000000E+00           0.000000E+00           0.000000E+00
      0.000000E+00           0.000000E+00           0.000000E+00           0.000000E+00           0.000000E+00           0.100000E+01           0.000000E+00           0.000000E+00
      0.000000E+00           0.000000E+00           0.000000E+00           0.000000E+00           0.000000E+00           0.000000E+00           0.100000E+01           0.000000E+00
      0.000000E+00           0.000000E+00           0.000000E+00           0.000000E+00           0.000000E+00           0.000000E+00           0.000000E+00           0.100000E+01
* P-type functions
    8    4
              0.285000E+02
              0.664000E+01
              0.192000E+01
              0.770000E+00
              0.320000E+00
              0.150000E+00
              0.660000E-01
              0.250000E-01
      0.367542E-03           0.000000E+00           0.000000E+00           0.000000E+00
      0.322359E-02           0.000000E+00           0.000000E+00           0.000000E+00
      0.143212E-01           0.000000E+00           0.000000E+00           0.000000E+00
      0.364814E-01           0.000000E+00           0.000000E+00           0.000000E+00
      0.757746E-01           0.000000E+00           0.000000E+00           0.000000E+00
      0.000000E+00           0.100000E+01           0.000000E+00           0.000000E+00
      0.000000E+00           0.000000E+00           0.100000E+01           0.000000E+00
      0.000000E+00           0.000000E+00           0.000000E+00           0.100000E+01
* D-type functions
    3    3
              0.175000E+01
              0.300000E+00
              0.110000E+00
      0.100000E+01           0.000000E+00           0.000000E+00
      0.000000E+00           0.100000E+01           0.000000E+00
      0.000000E+00           0.000000E+00           0.100000E+01
* F-type functions
    2    2
              0.500000E+00
              0.200000E+00
      0.100000E+01           0.000000E+00
      0.000000E+00           0.100000E+01
* G-type functions
    1    1
              0.550000E+00
      0.100000E+01
/Be.PC-4.Jensen.19s8p3d2f1g.8s4p3d2f1g.
BERYLLIUM       (19s,8p,3d,2f,1g) -> [8s,4p,3d,2f,1g]
BERYLLIUM       (19s,8p,3d,2f,1g) -> [8s,4p,3d,2f,1g]
          4.   4
* S-type functions
    19    8
              0.139330E+06
              0.267740E+05
              0.611200E+04
              0.163290E+04
              0.503030E+03
              0.176030E+03
              0.689390E+02
              0.297680E+02
              0.139630E+02
              0.700900E+01
              0.370940E+01
              0.203920E+01
              0.114720E+01
              0.650700E+00
              0.366590E+00
              0.202110E+00
              0.107420E+00
              0.542310E-01
              0.256190E-01
      0.243820E-05           0.000000E+00           0.000000E+00           0.000000E+00           0.000000E+00           0.000000E+00           0.000000E+00           0.000000E+00
      0.149380E-04          -0.396870E-06           0.000000E+00           0.000000E+00           0.000000E+00           0.000000E+00           0.000000E+00           0.000000E+00
      0.858010E-04           0.601210E-06           0.000000E+00           0.000000E+00           0.000000E+00           0.000000E+00           0.000000E+00           0.000000E+00
      0.400220E-03          -0.122410E-04           0.000000E+00           0.000000E+00           0.000000E+00           0.000000E+00           0.000000E+00           0.000000E+00
      0.152890E-02           0.323520E-04           0.000000E+00           0.000000E+00           0.000000E+00           0.000000E+00           0.000000E+00           0.000000E+00
      0.505860E-02          -0.170060E-03           0.000000E+00           0.000000E+00           0.000000E+00           0.000000E+00           0.000000E+00           0.000000E+00
      0.136440E-01           0.113620E-02           0.000000E+00           0.000000E+00           0.000000E+00           0.000000E+00           0.000000E+00           0.000000E+00
      0.327300E-01          -0.641920E-03           0.000000E+00           0.000000E+00           0.000000E+00           0.000000E+00           0.000000E+00           0.000000E+00
      0.575460E-01           0.215900E-01           0.000000E+00           0.000000E+00           0.000000E+00           0.000000E+00           0.000000E+00           0.000000E+00
      0.100670E+00           0.425610E-03           0.000000E+00           0.000000E+00           0.000000E+00           0.000000E+00           0.000000E+00           0.000000E+00
      0.863480E-01           0.181490E+00           0.000000E+00           0.000000E+00           0.000000E+00           0.000000E+00           0.000000E+00           0.000000E+00
      0.126530E+00           0.123520E-01           0.000000E+00           0.000000E+00           0.000000E+00           0.000000E+00           0.000000E+00           0.000000E+00
      0.000000E+00           0.384750E+00           0.000000E+00           0.000000E+00           0.000000E+00           0.000000E+00           0.000000E+00           0.000000E+00
      0.000000E+00           0.000000E+00           0.100000E+01           0.000000E+00           0.000000E+00           0.000000E+00           0.000000E+00           0.000000E+00
      0.000000E+00           0.000000E+00           0.000000E+00           0.100000E+01           0.000000E+00           0.000000E+00           0.000000E+00           0.000000E+00
      0.000000E+00           0.000000E+00           0.000000E+00           0.000000E+00           0.100000E+01           0.000000E+00           0.000000E+00           0.000000E+00
      0.000000E+00           0.000000E+00           0.000000E+00           0.000000E+00           0.000000E+00           0.100000E+01           0.000000E+00           0.000000E+00
      0.000000E+00           0.000000E+00           0.000000E+00           0.000000E+00           0.000000E+00           0.000000E+00           0.100000E+01           0.000000E+00
      0.000000E+00           0.000000E+00           0.000000E+00           0.000000E+00           0.000000E+00           0.000000E+00           0.000000E+00           0.100000E+01
* P-type functions
    8    4
              0.457000E+02
              0.106000E+02
              0.308000E+01
              0.123000E+01
              0.510000E+00
              0.230000E+00
              0.106000E+00
              0.400000E-01
      0.658771E-03           0.000000E+00           0.000000E+00           0.000000E+00
      0.573382E-02           0.000000E+00           0.000000E+00           0.000000E+00
      0.278459E-01           0.000000E+00           0.000000E+00           0.000000E+00
      0.564349E-01           0.000000E+00           0.000000E+00           0.000000E+00
      0.176167E+00           0.000000E+00           0.000000E+00           0.000000E+00
      0.000000E+00           0.100000E+01           0.000000E+00           0.000000E+00
      0.000000E+00           0.000000E+00           0.100000E+01           0.000000E+00
      0.000000E+00           0.000000E+00           0.000000E+00           0.100000E+01
* D-type functions
    3    3
              0.335000E+01
              0.570000E+00
              0.210000E+00
      0.100000E+01           0.000000E+00           0.000000E+00
      0.000000E+00           0.100000E+01           0.000000E+00
      0.000000E+00           0.000000E+00           0.100000E+01
* F-type functions
    2    2
              0.750000E+00
              0.300000E+00
      0.100000E+01           0.000000E+00
      0.000000E+00           0.100000E+01
* G-type functions
    1    1
              0.800000E+00
      0.100000E+01
/B.PC-4.Jensen.18s11p6d3f2g1h.8s7p6d3f2g1h.
BORON       (18s,11p,6d,3f,2g,1h) -> [8s,7p,6d,3f,2g,1h]
BORON       (18s,11p,6d,3f,2g,1h) -> [8s,7p,6d,3f,2g,1h]
          5.   5
* S-type functions
    18    8
              0.742500E+06
              0.110930E+06
              0.252030E+05
              0.712930E+04
              0.232470E+04
              0.839050E+03
              0.327790E+03
              0.136720E+03
              0.602940E+02
              0.277310E+02
              0.129920E+02
              0.625510E+01
              0.314720E+01
              0.156270E+01
              0.740660E+00
              0.312900E+00
              0.131420E+00
              0.547070E-01
      0.121880E-05           0.000000E+00           0.000000E+00           0.000000E+00           0.000000E+00           0.000000E+00           0.000000E+00           0.000000E+00
      0.943530E-05           0.000000E+00           0.000000E+00           0.000000E+00           0.000000E+00           0.000000E+00           0.000000E+00           0.000000E+00
      0.502810E-04           0.000000E+00           0.000000E+00           0.000000E+00           0.000000E+00           0.000000E+00           0.000000E+00           0.000000E+00
      0.209620E-03           0.231100E-05           0.000000E+00           0.000000E+00           0.000000E+00           0.000000E+00           0.000000E+00           0.000000E+00
      0.777390E-03          -0.366080E-05           0.000000E+00           0.000000E+00           0.000000E+00           0.000000E+00           0.000000E+00           0.000000E+00
      0.247190E-02           0.494850E-04           0.000000E+00           0.000000E+00           0.000000E+00           0.000000E+00           0.000000E+00           0.000000E+00
      0.746650E-02           0.194280E-04           0.000000E+00           0.000000E+00           0.000000E+00           0.000000E+00           0.000000E+00           0.000000E+00
      0.190950E-01           0.110270E-02           0.000000E+00           0.000000E+00           0.000000E+00           0.000000E+00           0.000000E+00           0.000000E+00
      0.467060E-01           0.268300E-02           0.000000E+00           0.000000E+00           0.000000E+00           0.000000E+00           0.000000E+00           0.000000E+00
      0.850150E-01           0.221860E-01           0.000000E+00           0.000000E+00           0.000000E+00           0.000000E+00           0.000000E+00           0.000000E+00
      0.142970E+00           0.608450E-01           0.000000E+00           0.000000E+00           0.000000E+00           0.000000E+00           0.000000E+00           0.000000E+00
      0.000000E+00           0.281140E+00           0.000000E+00           0.000000E+00           0.000000E+00           0.000000E+00           0.000000E+00           0.000000E+00
      0.000000E+00           0.000000E+00           0.100000E+01           0.000000E+00           0.000000E+00           0.000000E+00           0.000000E+00           0.000000E+00
      0.000000E+00           0.000000E+00           0.000000E+00           0.100000E+01           0.000000E+00           0.000000E+00           0.000000E+00           0.000000E+00
      0.000000E+00           0.000000E+00           0.000000E+00           0.000000E+00           0.100000E+01           0.000000E+00           0.000000E+00           0.000000E+00
      0.000000E+00           0.000000E+00           0.000000E+00           0.000000E+00           0.000000E+00           0.100000E+01           0.000000E+00           0.000000E+00
      0.000000E+00           0.000000E+00           0.000000E+00           0.000000E+00           0.000000E+00           0.000000E+00           0.100000E+01           0.000000E+00
      0.000000E+00           0.000000E+00           0.000000E+00           0.000000E+00           0.000000E+00           0.000000E+00           0.000000E+00           0.100000E+01
* P-type functions
    11    7
              0.227840E+03
              0.539220E+02
              0.170480E+02
              0.600200E+01
              0.260660E+01
              0.119620E+01
              0.569670E+00
              0.273770E+00
              0.128800E+00
              0.596530E-01
              0.261900E-01
      0.112430E-02           0.000000E+00           0.000000E+00           0.000000E+00           0.000000E+00           0.000000E+00           0.000000E+00
      0.973930E-02           0.000000E+00           0.000000E+00           0.000000E+00           0.000000E+00           0.000000E+00           0.000000E+00
      0.545360E-01           0.000000E+00           0.000000E+00           0.000000E+00           0.000000E+00           0.000000E+00           0.000000E+00
      0.231710E+00           0.000000E+00           0.000000E+00           0.000000E+00           0.000000E+00           0.000000E+00           0.000000E+00
      0.499310E+00           0.000000E+00           0.000000E+00           0.000000E+00           0.000000E+00           0.000000E+00           0.000000E+00
      0.000000E+00           0.100000E+01           0.000000E+00           0.000000E+00           0.000000E+00           0.000000E+00           0.000000E+00
      0.000000E+00           0.000000E+00           0.100000E+01           0.000000E+00           0.000000E+00           0.000000E+00           0.000000E+00
      0.000000E+00           0.000000E+00           0.000000E+00           0.100000E+01           0.000000E+00           0.000000E+00           0.000000E+00
      0.000000E+00           0.000000E+00           0.000000E+00           0.000000E+00           0.100000E+01           0.000000E+00           0.000000E+00
      0.000000E+00           0.000000E+00           0.000000E+00           0.000000E+00           0.000000E+00           0.100000E+01           0.000000E+00
      0.000000E+00           0.000000E+00           0.000000E+00           0.000000E+00           0.000000E+00           0.000000E+00           0.100000E+01
* D-type functions
    6    6
              0.530000E+01
              0.190000E+01
              0.750000E+00
              0.350000E+00
              0.160000E+00
              0.600000E-01
      0.100000E+01           0.000000E+00           0.000000E+00           0.000000E+00           0.000000E+00           0.000000E+00
      0.000000E+00           0.100000E+01           0.000000E+00           0.000000E+00           0.000000E+00           0.000000E+00
      0.000000E+00           0.000000E+00           0.100000E+01           0.000000E+00           0.000000E+00           0.000000E+00
      0.000000E+00           0.000000E+00           0.000000E+00           0.100000E+01           0.000000E+00           0.000000E+00
      0.000000E+00           0.000000E+00           0.000000E+00           0.000000E+00           0.100000E+01           0.000000E+00
      0.000000E+00           0.000000E+00           0.000000E+00           0.000000E+00           0.000000E+00           0.100000E+01
* F-type functions
    3    3
              0.190000E+01
              0.800000E+00
              0.350000E+00
      0.100000E+01           0.000000E+00           0.000000E+00
      0.000000E+00           0.100000E+01           0.000000E+00
      0.000000E+00           0.000000E+00           0.100000E+01
* G-type functions
    2    2
              0.165000E+01
              0.700000E+00
      0.100000E+01           0.000000E+00
      0.000000E+00           0.100000E+01
* H-type functions
    1    1
              0.175000E+01
      0.100000E+01
/C.PC-4.Jensen.18s11p6d3f2g1h.8s7p6d3f2g1h.
CARBON       (18s,11p,6d,3f,2g,1h) -> [8s,7p,6d,3f,2g,1h]
CARBON       (18s,11p,6d,3f,2g,1h) -> [8s,7p,6d,3f,2g,1h]
          6.   5
* S-type functions
    18    8
              0.527780E+06
              0.791050E+05
              0.180060E+05
              0.510080E+04
              0.166470E+04
              0.601660E+03
              0.235400E+03
              0.982630E+02
              0.432690E+02
              0.198580E+02
              0.956920E+01
              0.493730E+01
              0.266870E+01
              0.146740E+01
              0.638630E+00
              0.302400E+00
              0.141160E+00
              0.637490E-01
      0.296620E-05           0.000000E+00           0.000000E+00           0.000000E+00           0.000000E+00           0.000000E+00           0.000000E+00           0.000000E+00
      0.231550E-04           0.000000E+00           0.000000E+00           0.000000E+00           0.000000E+00           0.000000E+00           0.000000E+00           0.000000E+00
      0.120890E-03           0.356630E-06           0.000000E+00           0.000000E+00           0.000000E+00           0.000000E+00           0.000000E+00           0.000000E+00
      0.514900E-03          -0.358770E-05           0.000000E+00           0.000000E+00           0.000000E+00           0.000000E+00           0.000000E+00           0.000000E+00
      0.184580E-02           0.180860E-04           0.000000E+00           0.000000E+00           0.000000E+00           0.000000E+00           0.000000E+00           0.000000E+00
      0.602860E-02           0.124610E-05           0.000000E+00           0.000000E+00           0.000000E+00           0.000000E+00           0.000000E+00           0.000000E+00
      0.170230E-01           0.710750E-03           0.000000E+00           0.000000E+00           0.000000E+00           0.000000E+00           0.000000E+00           0.000000E+00
      0.440770E-01           0.253460E-02           0.000000E+00           0.000000E+00           0.000000E+00           0.000000E+00           0.000000E+00           0.000000E+00
      0.890610E-01           0.199340E-01           0.000000E+00           0.000000E+00           0.000000E+00           0.000000E+00           0.000000E+00           0.000000E+00
      0.148170E+00           0.650470E-01           0.000000E+00           0.000000E+00           0.000000E+00           0.000000E+00           0.000000E+00           0.000000E+00
      0.614360E-01           0.270000E+00           0.000000E+00           0.000000E+00           0.000000E+00           0.000000E+00           0.000000E+00           0.000000E+00
      0.000000E+00           0.328540E+00           0.000000E+00           0.000000E+00           0.000000E+00           0.000000E+00           0.000000E+00           0.000000E+00
      0.000000E+00           0.000000E+00           0.100000E+01           0.000000E+00           0.000000E+00           0.000000E+00           0.000000E+00           0.000000E+00
      0.000000E+00           0.000000E+00           0.000000E+00           0.100000E+01           0.000000E+00           0.000000E+00           0.000000E+00           0.000000E+00
      0.000000E+00           0.000000E+00           0.000000E+00           0.000000E+00           0.100000E+01           0.000000E+00           0.000000E+00           0.000000E+00
      0.000000E+00           0.000000E+00           0.000000E+00           0.000000E+00           0.000000E+00           0.100000E+01           0.000000E+00           0.000000E+00
      0.000000E+00           0.000000E+00           0.000000E+00           0.000000E+00           0.000000E+00           0.000000E+00           0.100000E+01           0.000000E+00
      0.000000E+00           0.000000E+00           0.000000E+00           0.000000E+00           0.000000E+00           0.000000E+00           0.000000E+00           0.100000E+01
* P-type functions
    11    7
              0.382210E+03
              0.904890E+02
              0.288710E+02
              0.103850E+02
              0.449720E+01
              0.202740E+01
              0.951540E+00
              0.448150E+00
              0.207210E+00
              0.948700E-01
              0.408430E-01
      0.984840E-03           0.000000E+00           0.000000E+00           0.000000E+00           0.000000E+00           0.000000E+00           0.000000E+00
      0.858470E-02           0.000000E+00           0.000000E+00           0.000000E+00           0.000000E+00           0.000000E+00           0.000000E+00
      0.482720E-01           0.000000E+00           0.000000E+00           0.000000E+00           0.000000E+00           0.000000E+00           0.000000E+00
      0.204540E+00           0.000000E+00           0.000000E+00           0.000000E+00           0.000000E+00           0.000000E+00           0.000000E+00
      0.498670E+00           0.000000E+00           0.000000E+00           0.000000E+00           0.000000E+00           0.000000E+00           0.000000E+00
      0.000000E+00           0.100000E+01           0.000000E+00           0.000000E+00           0.000000E+00           0.000000E+00           0.000000E+00
      0.000000E+00           0.000000E+00           0.100000E+01           0.000000E+00           0.000000E+00           0.000000E+00           0.000000E+00
      0.000000E+00           0.000000E+00           0.000000E+00           0.100000E+01           0.000000E+00           0.000000E+00           0.000000E+00
      0.000000E+00           0.000000E+00           0.000000E+00           0.000000E+00           0.100000E+01           0.000000E+00           0.000000E+00
      0.000000E+00           0.000000E+00           0.000000E+00           0.000000E+00           0.000000E+00           0.100000E+01           0.000000E+00
      0.000000E+00           0.000000E+00           0.000000E+00           0.000000E+00           0.000000E+00           0.000000E+00           0.100000E+01
* D-type functions
    6    6
              0.840000E+01
              0.300000E+01
              0.120000E+01
              0.550000E+00
              0.250000E+00
              0.100000E+00
      0.100000E+01           0.000000E+00           0.000000E+00           0.000000E+00           0.000000E+00           0.000000E+00
      0.000000E+00           0.100000E+01           0.000000E+00           0.000000E+00           0.000000E+00           0.000000E+00
      0.000000E+00           0.000000E+00           0.100000E+01           0.000000E+00           0.000000E+00           0.000000E+00
      0.000000E+00           0.000000E+00           0.000000E+00           0.100000E+01           0.000000E+00           0.000000E+00
      0.000000E+00           0.000000E+00           0.000000E+00           0.000000E+00           0.100000E+01           0.000000E+00
      0.000000E+00           0.000000E+00           0.000000E+00           0.000000E+00           0.000000E+00           0.100000E+01
* F-type functions
    3    3
              0.210000E+01
              0.900000E+00
              0.400000E+00
      0.100000E+01           0.000000E+00           0.000000E+00
      0.000000E+00           0.100000E+01           0.000000E+00
      0.000000E+00           0.000000E+00           0.100000E+01
* G-type functions
    2    2
              0.210000E+01
              0.900000E+00
      0.100000E+01           0.000000E+00
      0.000000E+00           0.100000E+01
* H-type functions
    1    1
              0.185000E+01
      0.100000E+01
/N.PC-4.Jensen.18s11p6d3f2g1h.8s7p6d3f2g1h.
NITROGEN       (18s,11p,6d,3f,2g,1h) -> [8s,7p,6d,3f,2g,1h]
NITROGEN       (18s,11p,6d,3f,2g,1h) -> [8s,7p,6d,3f,2g,1h]
          7.   5
* S-type functions
    18    8
              0.894760E+06
              0.134830E+06
              0.308080E+05
              0.875150E+04
              0.286200E+04
              0.103530E+04
              0.404730E+03
              0.168330E+03
              0.736950E+02
              0.337530E+02
              0.161570E+02
              0.796880E+01
              0.395210E+01
              0.194540E+01
              0.929290E+00
              0.440850E+00
              0.203400E+00
              0.912260E-01
      0.226320E-05           0.000000E+00           0.000000E+00           0.000000E+00           0.000000E+00           0.000000E+00           0.000000E+00           0.000000E+00
      0.175410E-04           0.000000E+00           0.000000E+00           0.000000E+00           0.000000E+00           0.000000E+00           0.000000E+00           0.000000E+00
      0.911680E-04           0.000000E+00           0.000000E+00           0.000000E+00           0.000000E+00           0.000000E+00           0.000000E+00           0.000000E+00
      0.387400E-03          -0.321300E-05           0.000000E+00           0.000000E+00           0.000000E+00           0.000000E+00           0.000000E+00           0.000000E+00
      0.138700E-02           0.137030E-04           0.000000E+00           0.000000E+00           0.000000E+00           0.000000E+00           0.000000E+00           0.000000E+00
      0.455030E-02          -0.148620E-04           0.000000E+00           0.000000E+00           0.000000E+00           0.000000E+00           0.000000E+00           0.000000E+00
      0.130090E-01           0.481020E-03           0.000000E+00           0.000000E+00           0.000000E+00           0.000000E+00           0.000000E+00           0.000000E+00
      0.346960E-01           0.153840E-02           0.000000E+00           0.000000E+00           0.000000E+00           0.000000E+00           0.000000E+00           0.000000E+00
      0.748040E-01           0.135550E-01           0.000000E+00           0.000000E+00           0.000000E+00           0.000000E+00           0.000000E+00           0.000000E+00
      0.134570E+00           0.473110E-01           0.000000E+00           0.000000E+00           0.000000E+00           0.000000E+00           0.000000E+00           0.000000E+00
      0.116720E+00           0.201600E+00           0.000000E+00           0.000000E+00           0.000000E+00           0.000000E+00           0.000000E+00           0.000000E+00
      0.000000E+00           0.407130E+00           0.000000E+00           0.000000E+00           0.000000E+00           0.000000E+00           0.000000E+00           0.000000E+00
      0.000000E+00           0.000000E+00           0.100000E+01           0.000000E+00           0.000000E+00           0.000000E+00           0.000000E+00           0.000000E+00
      0.000000E+00           0.000000E+00           0.000000E+00           0.100000E+01           0.000000E+00           0.000000E+00           0.000000E+00           0.000000E+00
      0.000000E+00           0.000000E+00           0.000000E+00           0.000000E+00           0.100000E+01           0.000000E+00           0.000000E+00           0.000000E+00
      0.000000E+00           0.000000E+00           0.000000E+00           0.000000E+00           0.000000E+00           0.100000E+01           0.000000E+00           0.000000E+00
      0.000000E+00           0.000000E+00           0.000000E+00           0.000000E+00           0.000000E+00           0.000000E+00           0.100000E+01           0.000000E+00
      0.000000E+00           0.000000E+00           0.000000E+00           0.000000E+00           0.000000E+00           0.000000E+00           0.000000E+00           0.100000E+01
* P-type functions
    11    7
              0.566230E+03
              0.134100E+03
              0.430130E+02
              0.156120E+02
              0.664270E+01
              0.297480E+01
              0.138850E+01
              0.650120E+00
              0.300280E+00
              0.136200E+00
              0.578450E-01
      0.924330E-03           0.000000E+00           0.000000E+00           0.000000E+00           0.000000E+00           0.000000E+00           0.000000E+00
      0.808980E-02           0.000000E+00           0.000000E+00           0.000000E+00           0.000000E+00           0.000000E+00           0.000000E+00
      0.454630E-01           0.000000E+00           0.000000E+00           0.000000E+00           0.000000E+00           0.000000E+00           0.000000E+00
      0.196220E+00           0.000000E+00           0.000000E+00           0.000000E+00           0.000000E+00           0.000000E+00           0.000000E+00
      0.517540E+00           0.000000E+00           0.000000E+00           0.000000E+00           0.000000E+00           0.000000E+00           0.000000E+00
      0.000000E+00           0.100000E+01           0.000000E+00           0.000000E+00           0.000000E+00           0.000000E+00           0.000000E+00
      0.000000E+00           0.000000E+00           0.100000E+01           0.000000E+00           0.000000E+00           0.000000E+00           0.000000E+00
      0.000000E+00           0.000000E+00           0.000000E+00           0.100000E+01           0.000000E+00           0.000000E+00           0.000000E+00
      0.000000E+00           0.000000E+00           0.000000E+00           0.000000E+00           0.100000E+01           0.000000E+00           0.000000E+00
      0.000000E+00           0.000000E+00           0.000000E+00           0.000000E+00           0.000000E+00           0.100000E+01           0.000000E+00
      0.000000E+00           0.000000E+00           0.000000E+00           0.000000E+00           0.000000E+00           0.000000E+00           0.100000E+01
* D-type functions
    6    6
              0.128000E+02
              0.440000E+01
              0.175000E+01
              0.800000E+00
              0.370000E+00
              0.150000E+00
      0.100000E+01           0.000000E+00           0.000000E+00           0.000000E+00           0.000000E+00           0.000000E+00
      0.000000E+00           0.100000E+01           0.000000E+00           0.000000E+00           0.000000E+00           0.000000E+00
      0.000000E+00           0.000000E+00           0.100000E+01           0.000000E+00           0.000000E+00           0.000000E+00
      0.000000E+00           0.000000E+00           0.000000E+00           0.100000E+01           0.000000E+00           0.000000E+00
      0.000000E+00           0.000000E+00           0.000000E+00           0.000000E+00           0.100000E+01           0.000000E+00
      0.000000E+00           0.000000E+00           0.000000E+00           0.000000E+00           0.000000E+00           0.100000E+01
* F-type functions
    3    3
              0.230000E+01
              0.100000E+01
              0.450000E+00
      0.100000E+01           0.000000E+00           0.000000E+00
      0.000000E+00           0.100000E+01           0.000000E+00
      0.000000E+00           0.000000E+00           0.100000E+01
* G-type functions
    2    2
              0.255000E+01
              0.110000E+01
      0.100000E+01           0.000000E+00
      0.000000E+00           0.100000E+01
* H-type functions
    1    1
              0.195000E+01
      0.100000E+01
/O.PC-4.Jensen.18s11p6d3f2g1h.8s7p6d3f2g1h.
OXYGEN       (18s,11p,6d,3f,2g,1h) -> [8s,7p,6d,3f,2g,1h]
OXYGEN       (18s,11p,6d,3f,2g,1h) -> [8s,7p,6d,3f,2g,1h]
          8.   5
* S-type functions
    18    8
              0.125970E+07
              0.190110E+06
              0.434490E+05
              0.123420E+05
              0.403500E+04
              0.145970E+04
              0.570660E+03
              0.237500E+03
              0.104110E+03
              0.475810E+02
              0.225460E+02
              0.110930E+02
              0.554090E+01
              0.277940E+01
              0.128370E+01
              0.596490E+00
              0.270570E+00
              0.120280E+00
      0.206840E-05           0.000000E+00           0.000000E+00           0.000000E+00           0.000000E+00           0.000000E+00           0.000000E+00           0.000000E+00
      0.159600E-04           0.000000E+00           0.000000E+00           0.000000E+00           0.000000E+00           0.000000E+00           0.000000E+00           0.000000E+00
      0.833280E-04           0.000000E+00           0.000000E+00           0.000000E+00           0.000000E+00           0.000000E+00           0.000000E+00           0.000000E+00
      0.352120E-03          -0.880840E-06           0.000000E+00           0.000000E+00           0.000000E+00           0.000000E+00           0.000000E+00           0.000000E+00
      0.127090E-02           0.749180E-05           0.000000E+00           0.000000E+00           0.000000E+00           0.000000E+00           0.000000E+00           0.000000E+00
      0.413240E-02           0.189250E-04           0.000000E+00           0.000000E+00           0.000000E+00           0.000000E+00           0.000000E+00           0.000000E+00
      0.119700E-01           0.351660E-03           0.000000E+00           0.000000E+00           0.000000E+00           0.000000E+00           0.000000E+00           0.000000E+00
      0.315610E-01           0.170470E-02           0.000000E+00           0.000000E+00           0.000000E+00           0.000000E+00           0.000000E+00           0.000000E+00
      0.699600E-01           0.114120E-01           0.000000E+00           0.000000E+00           0.000000E+00           0.000000E+00           0.000000E+00           0.000000E+00
      0.127020E+00           0.460250E-01           0.000000E+00           0.000000E+00           0.000000E+00           0.000000E+00           0.000000E+00           0.000000E+00
      0.118990E+00           0.191400E+00           0.000000E+00           0.000000E+00           0.000000E+00           0.000000E+00           0.000000E+00           0.000000E+00
      0.000000E+00           0.402600E+00           0.000000E+00           0.000000E+00           0.000000E+00           0.000000E+00           0.000000E+00           0.000000E+00
      0.000000E+00           0.000000E+00           0.100000E+01           0.000000E+00           0.000000E+00           0.000000E+00           0.000000E+00           0.000000E+00
      0.000000E+00           0.000000E+00           0.000000E+00           0.100000E+01           0.000000E+00           0.000000E+00           0.000000E+00           0.000000E+00
      0.000000E+00           0.000000E+00           0.000000E+00           0.000000E+00           0.100000E+01           0.000000E+00           0.000000E+00           0.000000E+00
      0.000000E+00           0.000000E+00           0.000000E+00           0.000000E+00           0.000000E+00           0.100000E+01           0.000000E+00           0.000000E+00
      0.000000E+00           0.000000E+00           0.000000E+00           0.000000E+00           0.000000E+00           0.000000E+00           0.100000E+01           0.000000E+00
      0.000000E+00           0.000000E+00           0.000000E+00           0.000000E+00           0.000000E+00           0.000000E+00           0.000000E+00           0.100000E+01
* P-type functions
    11    7
              0.708610E+03
              0.167860E+03
              0.539670E+02
              0.198070E+02
              0.838320E+01
              0.374470E+01
              0.173220E+01
              0.799770E+00
              0.363230E+00
              0.159630E+00
              0.656640E-01
      0.104560E-02           0.000000E+00           0.000000E+00           0.000000E+00           0.000000E+00           0.000000E+00           0.000000E+00
      0.912920E-02           0.000000E+00           0.000000E+00           0.000000E+00           0.000000E+00           0.000000E+00           0.000000E+00
      0.509770E-01           0.000000E+00           0.000000E+00           0.000000E+00           0.000000E+00           0.000000E+00           0.000000E+00
      0.215990E+00           0.000000E+00           0.000000E+00           0.000000E+00           0.000000E+00           0.000000E+00           0.000000E+00
      0.587770E+00           0.000000E+00           0.000000E+00           0.000000E+00           0.000000E+00           0.000000E+00           0.000000E+00
      0.000000E+00           0.100000E+01           0.000000E+00           0.000000E+00           0.000000E+00           0.000000E+00           0.000000E+00
      0.000000E+00           0.000000E+00           0.100000E+01           0.000000E+00           0.000000E+00           0.000000E+00           0.000000E+00
      0.000000E+00           0.000000E+00           0.000000E+00           0.100000E+01           0.000000E+00           0.000000E+00           0.000000E+00
      0.000000E+00           0.000000E+00           0.000000E+00           0.000000E+00           0.100000E+01           0.000000E+00           0.000000E+00
      0.000000E+00           0.000000E+00           0.000000E+00           0.000000E+00           0.000000E+00           0.100000E+01           0.000000E+00
      0.000000E+00           0.000000E+00           0.000000E+00           0.000000E+00           0.000000E+00           0.000000E+00           0.100000E+01
* D-type functions
    6    6
              0.182000E+02
              0.600000E+01
              0.240000E+01
              0.110000E+01
              0.500000E+00
              0.200000E+00
      0.100000E+01           0.000000E+00           0.000000E+00           0.000000E+00           0.000000E+00           0.000000E+00
      0.000000E+00           0.100000E+01           0.000000E+00           0.000000E+00           0.000000E+00           0.000000E+00
      0.000000E+00           0.000000E+00           0.100000E+01           0.000000E+00           0.000000E+00           0.000000E+00
      0.000000E+00           0.000000E+00           0.000000E+00           0.100000E+01           0.000000E+00           0.000000E+00
      0.000000E+00           0.000000E+00           0.000000E+00           0.000000E+00           0.100000E+01           0.000000E+00
      0.000000E+00           0.000000E+00           0.000000E+00           0.000000E+00           0.000000E+00           0.100000E+01
* F-type functions
    3    3
              0.260000E+01
              0.115000E+01
              0.500000E+00
      0.100000E+01           0.000000E+00           0.000000E+00
      0.000000E+00           0.100000E+01           0.000000E+00
      0.000000E+00           0.000000E+00           0.100000E+01
* G-type functions
    2    2
              0.305000E+01
              0.130000E+01
      0.100000E+01           0.000000E+00
      0.000000E+00           0.100000E+01
* H-type functions
    1    1
              0.205000E+01
      0.100000E+01
/F.PC-4.Jensen.18s11p6d3f2g1h.8s7p6d3f2g1h.
FLUORINE       (18s,11p,6d,3f,2g,1h) -> [8s,7p,6d,3f,2g,1h]
FLUORINE       (18s,11p,6d,3f,2g,1h) -> [8s,7p,6d,3f,2g,1h]
          9.   5
* S-type functions
    18    8
              0.185600E+07
              0.280070E+06
              0.640780E+05
              0.182160E+05
              0.595780E+04
              0.215500E+04
              0.841960E+03
              0.349820E+03
              0.152790E+03
              0.693670E+02
              0.325740E+02
              0.158890E+02
              0.786510E+01
              0.391990E+01
              0.178610E+01
              0.820650E+00
              0.369370E+00
              0.161980E+00
      0.171720E-05           0.000000E+00           0.000000E+00           0.000000E+00           0.000000E+00           0.000000E+00           0.000000E+00           0.000000E+00
      0.132440E-04           0.000000E+00           0.000000E+00           0.000000E+00           0.000000E+00           0.000000E+00           0.000000E+00           0.000000E+00
      0.690150E-04           0.000000E+00           0.000000E+00           0.000000E+00           0.000000E+00           0.000000E+00           0.000000E+00           0.000000E+00
      0.291620E-03          -0.809130E-06           0.000000E+00           0.000000E+00           0.000000E+00           0.000000E+00           0.000000E+00           0.000000E+00
      0.105220E-02           0.584830E-05           0.000000E+00           0.000000E+00           0.000000E+00           0.000000E+00           0.000000E+00           0.000000E+00
      0.343010E-02           0.111810E-04           0.000000E+00           0.000000E+00           0.000000E+00           0.000000E+00           0.000000E+00           0.000000E+00
      0.997250E-02           0.264520E-03           0.000000E+00           0.000000E+00           0.000000E+00           0.000000E+00           0.000000E+00           0.000000E+00
      0.266250E-01           0.124470E-02           0.000000E+00           0.000000E+00           0.000000E+00           0.000000E+00           0.000000E+00           0.000000E+00
      0.603970E-01           0.880460E-02           0.000000E+00           0.000000E+00           0.000000E+00           0.000000E+00           0.000000E+00           0.000000E+00
      0.114680E+00           0.366660E-01           0.000000E+00           0.000000E+00           0.000000E+00           0.000000E+00           0.000000E+00           0.000000E+00
      0.114870E+00           0.162120E+00           0.000000E+00           0.000000E+00           0.000000E+00           0.000000E+00           0.000000E+00           0.000000E+00
      0.000000E+00           0.374030E+00           0.000000E+00           0.000000E+00           0.000000E+00           0.000000E+00           0.000000E+00           0.000000E+00
      0.000000E+00           0.000000E+00           0.100000E+01           0.000000E+00           0.000000E+00           0.000000E+00           0.000000E+00           0.000000E+00
      0.000000E+00           0.000000E+00           0.000000E+00           0.100000E+01           0.000000E+00           0.000000E+00           0.000000E+00           0.000000E+00
      0.000000E+00           0.000000E+00           0.000000E+00           0.000000E+00           0.100000E+01           0.000000E+00           0.000000E+00           0.000000E+00
      0.000000E+00           0.000000E+00           0.000000E+00           0.000000E+00           0.000000E+00           0.100000E+01           0.000000E+00           0.000000E+00
      0.000000E+00           0.000000E+00           0.000000E+00           0.000000E+00           0.000000E+00           0.000000E+00           0.100000E+01           0.000000E+00
      0.000000E+00           0.000000E+00           0.000000E+00           0.000000E+00           0.000000E+00           0.000000E+00           0.000000E+00           0.100000E+01
* P-type functions
    11    7
              0.917890E+03
              0.217410E+03
              0.699390E+02
              0.258310E+02
              0.109690E+02
              0.492150E+01
              0.228390E+01
              0.105790E+01
              0.481350E+00
              0.209020E+00
              0.855560E-01
      0.104500E-02           0.000000E+00           0.000000E+00           0.000000E+00           0.000000E+00           0.000000E+00           0.000000E+00
      0.914290E-02           0.000000E+00           0.000000E+00           0.000000E+00           0.000000E+00           0.000000E+00           0.000000E+00
      0.512270E-01           0.000000E+00           0.000000E+00           0.000000E+00           0.000000E+00           0.000000E+00           0.000000E+00
      0.215580E+00           0.000000E+00           0.000000E+00           0.000000E+00           0.000000E+00           0.000000E+00           0.000000E+00
      0.596600E+00           0.000000E+00           0.000000E+00           0.000000E+00           0.000000E+00           0.000000E+00           0.000000E+00
      0.000000E+00           0.100000E+01           0.000000E+00           0.000000E+00           0.000000E+00           0.000000E+00           0.000000E+00
      0.000000E+00           0.000000E+00           0.100000E+01           0.000000E+00           0.000000E+00           0.000000E+00           0.000000E+00
      0.000000E+00           0.000000E+00           0.000000E+00           0.100000E+01           0.000000E+00           0.000000E+00           0.000000E+00
      0.000000E+00           0.000000E+00           0.000000E+00           0.000000E+00           0.100000E+01           0.000000E+00           0.000000E+00
      0.000000E+00           0.000000E+00           0.000000E+00           0.000000E+00           0.000000E+00           0.100000E+01           0.000000E+00
      0.000000E+00           0.000000E+00           0.000000E+00           0.000000E+00           0.000000E+00           0.000000E+00           0.100000E+01
* D-type functions
    6    6
              0.255000E+02
              0.800000E+01
              0.320000E+01
              0.145000E+01
              0.650000E+00
              0.250000E+00
      0.100000E+01           0.000000E+00           0.000000E+00           0.000000E+00           0.000000E+00           0.000000E+00
      0.000000E+00           0.100000E+01           0.000000E+00           0.000000E+00           0.000000E+00           0.000000E+00
      0.000000E+00           0.000000E+00           0.100000E+01           0.000000E+00           0.000000E+00           0.000000E+00
      0.000000E+00           0.000000E+00           0.000000E+00           0.100000E+01           0.000000E+00           0.000000E+00
      0.000000E+00           0.000000E+00           0.000000E+00           0.000000E+00           0.100000E+01           0.000000E+00
      0.000000E+00           0.000000E+00           0.000000E+00           0.000000E+00           0.000000E+00           0.100000E+01
* F-type functions
    3    3
              0.310000E+01
              0.135000E+01
              0.600000E+00
      0.100000E+01           0.000000E+00           0.000000E+00
      0.000000E+00           0.100000E+01           0.000000E+00
      0.000000E+00           0.000000E+00           0.100000E+01
* G-type functions
    2    2
              0.360000E+01
              0.155000E+01
      0.100000E+01           0.000000E+00
      0.000000E+00           0.100000E+01
* H-type functions
    1    1
              0.215000E+01
      0.100000E+01
/Ne.PC-4.Jensen.18s11p6d3f2g1h.8s7p6d3f2g1h.
NEON       (18s,11p,6d,3f,2g,1h) -> [8s,7p,6d,3f,2g,1h]
NEON       (18s,11p,6d,3f,2g,1h) -> [8s,7p,6d,3f,2g,1h]
          10.   5
* S-type functions
    18    8
              0.252260E+07
              0.377060E+06
              0.857130E+05
              0.242610E+05
              0.791170E+04
              0.285550E+04
              0.111360E+04
              0.461890E+03
              0.201350E+03
              0.911980E+02
              0.426800E+02
              0.207420E+02
              0.102490E+02
              0.510130E+01
              0.230310E+01
              0.105310E+01
              0.472220E+00
              0.204660E+00
      0.766530E-05           0.000000E+00           0.000000E+00           0.000000E+00           0.000000E+00           0.000000E+00           0.000000E+00           0.000000E+00
      0.598260E-04           0.000000E+00           0.000000E+00           0.000000E+00           0.000000E+00           0.000000E+00           0.000000E+00           0.000000E+00
      0.314410E-03           0.000000E+00           0.000000E+00           0.000000E+00           0.000000E+00           0.000000E+00           0.000000E+00           0.000000E+00
      0.133260E-02          -0.203210E-06           0.000000E+00           0.000000E+00           0.000000E+00           0.000000E+00           0.000000E+00           0.000000E+00
      0.483320E-02           0.212160E-05           0.000000E+00           0.000000E+00           0.000000E+00           0.000000E+00           0.000000E+00           0.000000E+00
      0.157630E-01           0.758350E-05           0.000000E+00           0.000000E+00           0.000000E+00           0.000000E+00           0.000000E+00           0.000000E+00
      0.461230E-01           0.110550E-03           0.000000E+00           0.000000E+00           0.000000E+00           0.000000E+00           0.000000E+00           0.000000E+00
      0.123390E+00           0.582830E-03           0.000000E+00           0.000000E+00           0.000000E+00           0.000000E+00           0.000000E+00           0.000000E+00
      0.284280E+00           0.387530E-02           0.000000E+00           0.000000E+00           0.000000E+00           0.000000E+00           0.000000E+00           0.000000E+00
      0.545690E+00           0.170860E-01           0.000000E+00           0.000000E+00           0.000000E+00           0.000000E+00           0.000000E+00           0.000000E+00
      0.581410E+00           0.749780E-01           0.000000E+00           0.000000E+00           0.000000E+00           0.000000E+00           0.000000E+00           0.000000E+00
      0.000000E+00           0.183910E+00           0.000000E+00           0.000000E+00           0.000000E+00           0.000000E+00           0.000000E+00           0.000000E+00
      0.000000E+00           0.000000E+00           0.100000E+01           0.000000E+00           0.000000E+00           0.000000E+00           0.000000E+00           0.000000E+00
      0.000000E+00           0.000000E+00           0.000000E+00           0.100000E+01           0.000000E+00           0.000000E+00           0.000000E+00           0.000000E+00
      0.000000E+00           0.000000E+00           0.000000E+00           0.000000E+00           0.100000E+01           0.000000E+00           0.000000E+00           0.000000E+00
      0.000000E+00           0.000000E+00           0.000000E+00           0.000000E+00           0.000000E+00           0.100000E+01           0.000000E+00           0.000000E+00
      0.000000E+00           0.000000E+00           0.000000E+00           0.000000E+00           0.000000E+00           0.000000E+00           0.100000E+01           0.000000E+00
      0.000000E+00           0.000000E+00           0.000000E+00           0.000000E+00           0.000000E+00           0.000000E+00           0.000000E+00           0.100000E+01
* P-type functions
    11    7
              0.116990E+04
              0.277110E+03
              0.892640E+02
              0.331000E+02
              0.140310E+02
              0.629850E+01
              0.292340E+01
              0.135370E+01
              0.613620E+00
              0.263620E+00
              0.107550E+00
      0.510640E-03           0.000000E+00           0.000000E+00           0.000000E+00           0.000000E+00           0.000000E+00           0.000000E+00
      0.447380E-02           0.000000E+00           0.000000E+00           0.000000E+00           0.000000E+00           0.000000E+00           0.000000E+00
      0.251100E-01           0.000000E+00           0.000000E+00           0.000000E+00           0.000000E+00           0.000000E+00           0.000000E+00
      0.105930E+00           0.000000E+00           0.000000E+00           0.000000E+00           0.000000E+00           0.000000E+00           0.000000E+00
      0.299580E+00           0.000000E+00           0.000000E+00           0.000000E+00           0.000000E+00           0.000000E+00           0.000000E+00
      0.000000E+00           0.100000E+01           0.000000E+00           0.000000E+00           0.000000E+00           0.000000E+00           0.000000E+00
      0.000000E+00           0.000000E+00           0.100000E+01           0.000000E+00           0.000000E+00           0.000000E+00           0.000000E+00
      0.000000E+00           0.000000E+00           0.000000E+00           0.100000E+01           0.000000E+00           0.000000E+00           0.000000E+00
      0.000000E+00           0.000000E+00           0.000000E+00           0.000000E+00           0.100000E+01           0.000000E+00           0.000000E+00
      0.000000E+00           0.000000E+00           0.000000E+00           0.000000E+00           0.000000E+00           0.100000E+01           0.000000E+00
      0.000000E+00           0.000000E+00           0.000000E+00           0.000000E+00           0.000000E+00           0.000000E+00           0.100000E+01
* D-type functions
    6    6
              0.320000E+02
              0.101000E+02
              0.400000E+01
              0.185000E+01
              0.800000E+00
              0.300000E+00
      0.100000E+01           0.000000E+00           0.000000E+00           0.000000E+00           0.000000E+00           0.000000E+00
      0.000000E+00           0.100000E+01           0.000000E+00           0.000000E+00           0.000000E+00           0.000000E+00
      0.000000E+00           0.000000E+00           0.100000E+01           0.000000E+00           0.000000E+00           0.000000E+00
      0.000000E+00           0.000000E+00           0.000000E+00           0.100000E+01           0.000000E+00           0.000000E+00
      0.000000E+00           0.000000E+00           0.000000E+00           0.000000E+00           0.100000E+01           0.000000E+00
      0.000000E+00           0.000000E+00           0.000000E+00           0.000000E+00           0.000000E+00           0.100000E+01
* F-type functions
    3    3
              0.360000E+01
              0.155000E+01
              0.700000E+00
      0.100000E+01           0.000000E+00           0.000000E+00
      0.000000E+00           0.100000E+01           0.000000E+00
      0.000000E+00           0.000000E+00           0.100000E+01
* G-type functions
    2    2
              0.420000E+01
              0.180000E+01
      0.100000E+01           0.000000E+00
      0.000000E+00           0.100000E+01
* H-type functions
    1    1
              0.225000E+01
      0.100000E+01
/Na.PC-4.Jensen.21s15p3d2f1g.7s5p3d2f1g.
SODIUM       (21s,15p,3d,2f,1g) -> [7s,5p,3d,2f,1g]
SODIUM       (21s,15p,3d,2f,1g) -> [7s,5p,3d,2f,1g]
          11.   4
* S-type functions
    21    7
              0.191870E+07
              0.287270E+06
              0.653820E+05
              0.185230E+05
              0.604540E+04
              0.218420E+04
              0.853110E+03
              0.354690E+03
              0.155330E+03
              0.712340E+02
              0.338350E+02
              0.163490E+02
              0.800820E+01
              0.367130E+01
              0.171180E+01
              0.791470E+00
              0.354790E+00
              0.906640E-01
              0.443130E-01
              0.219480E-01
              0.108210E-01
      0.274290E-05           0.000000E+00           0.000000E+00           0.000000E+00           0.000000E+00           0.000000E+00           0.000000E+00
      0.213320E-04           0.000000E+00           0.000000E+00           0.000000E+00           0.000000E+00           0.000000E+00           0.000000E+00
      0.112210E-03           0.000000E+00           0.000000E+00           0.000000E+00           0.000000E+00           0.000000E+00           0.000000E+00
      0.473690E-03           0.000000E+00           0.000000E+00           0.000000E+00           0.000000E+00           0.000000E+00           0.000000E+00
      0.172350E-02           0.000000E+00          -0.144460E-05           0.000000E+00           0.000000E+00           0.000000E+00           0.000000E+00
      0.559140E-02          -0.179020E-04          -0.130570E-04           0.000000E+00           0.000000E+00           0.000000E+00           0.000000E+00
      0.164610E-01          -0.649780E-04          -0.974170E-04           0.000000E+00           0.000000E+00           0.000000E+00           0.000000E+00
      0.437760E-01          -0.609090E-03          -0.637870E-03           0.000000E+00           0.000000E+00           0.000000E+00           0.000000E+00
      0.102660E+00          -0.260940E-02          -0.333940E-02           0.000000E+00           0.000000E+00           0.000000E+00           0.000000E+00
      0.200740E+00          -0.132950E-01          -0.151450E-01           0.000000E+00           0.000000E+00           0.000000E+00           0.000000E+00
      0.309520E+00          -0.398670E-01          -0.490790E-01           0.000000E+00           0.000000E+00           0.000000E+00           0.000000E+00
      0.308260E+00          -0.961080E-01          -0.108650E+00           0.000000E+00           0.000000E+00           0.000000E+00           0.000000E+00
      0.148550E+00          -0.704790E-01          -0.885270E-01           0.000000E+00           0.000000E+00           0.000000E+00           0.000000E+00
      0.171130E-01           0.245650E+00           0.293660E+00           0.000000E+00           0.000000E+00           0.000000E+00           0.000000E+00
     -0.155410E-02           0.553620E+00           0.479150E+00           0.000000E+00           0.000000E+00           0.000000E+00           0.000000E+00
      0.000000E+00           0.458690E+00           0.156800E+00           0.000000E+00           0.000000E+00           0.000000E+00           0.000000E+00
      0.000000E+00           0.000000E+00          -0.578530E+00           0.000000E+00           0.000000E+00           0.000000E+00           0.000000E+00
      0.000000E+00           0.000000E+00           0.000000E+00           0.100000E+01           0.000000E+00           0.000000E+00           0.000000E+00
      0.000000E+00           0.000000E+00           0.000000E+00           0.000000E+00           0.100000E+01           0.000000E+00           0.000000E+00
      0.000000E+00           0.000000E+00           0.000000E+00           0.000000E+00           0.000000E+00           0.100000E+01           0.000000E+00
      0.000000E+00           0.000000E+00           0.000000E+00           0.000000E+00           0.000000E+00           0.000000E+00           0.100000E+01
* P-type functions
    15    5
              0.304420E+04
              0.720020E+03
              0.234420E+03
              0.896660E+02
              0.366950E+02
              0.162560E+02
              0.765930E+01
              0.371250E+01
              0.179920E+01
              0.862880E+00
              0.401040E+00
              0.177590E+00
              0.807000E-01
              0.367000E-01
              0.167000E-01
      0.293550E-04           0.000000E+00           0.000000E+00           0.000000E+00           0.000000E+00
      0.261000E-03           0.000000E+00           0.000000E+00           0.000000E+00           0.000000E+00
      0.148190E-02           0.000000E+00           0.000000E+00           0.000000E+00           0.000000E+00
      0.648150E-02           0.000000E+00           0.000000E+00           0.000000E+00           0.000000E+00
      0.248030E-01           0.000000E+00           0.000000E+00           0.000000E+00           0.000000E+00
      0.659540E-01           0.000000E+00           0.000000E+00           0.000000E+00           0.000000E+00
      0.147940E+00           0.000000E+00           0.000000E+00           0.000000E+00           0.000000E+00
      0.244000E+00           0.000000E+00           0.000000E+00           0.000000E+00           0.000000E+00
      0.302440E+00           0.000000E+00           0.000000E+00           0.000000E+00           0.000000E+00
      0.275570E+00           0.000000E+00           0.000000E+00           0.000000E+00           0.000000E+00
      0.162190E+00           0.000000E+00           0.000000E+00           0.000000E+00           0.000000E+00
      0.000000E+00           0.100000E+01           0.000000E+00           0.000000E+00           0.000000E+00
      0.000000E+00           0.000000E+00           0.100000E+01           0.000000E+00           0.000000E+00
      0.000000E+00           0.000000E+00           0.000000E+00           0.100000E+01           0.000000E+00
      0.000000E+00           0.000000E+00           0.000000E+00           0.000000E+00           0.100000E+01
* D-type functions
    3    3
              0.235000E+01
              0.560000E+00
              0.140000E+00
      0.100000E+01           0.000000E+00           0.000000E+00
      0.000000E+00           0.100000E+01           0.000000E+00
      0.000000E+00           0.000000E+00           0.100000E+01
* F-type functions
    2    2
              0.108000E+01
              0.240000E+00
      0.100000E+01           0.000000E+00
      0.000000E+00           0.100000E+01
* G-type functions
    1    1
              0.300000E+00
      0.100000E+01
/Mg.PC-4.Jensen.21s15p3d2f1g.7s5p3d2f1g.
MAGNESIUM       (21s,15p,3d,2f,1g) -> [7s,5p,3d,2f,1g]
MAGNESIUM       (21s,15p,3d,2f,1g) -> [7s,5p,3d,2f,1g]
          12.   4
* S-type functions
    21    7
              0.319910E+07
              0.479000E+06
              0.109010E+06
              0.308780E+05
              0.100750E+05
              0.363790E+04
              0.141950E+04
              0.589350E+03
              0.257530E+03
              0.117170E+03
              0.547620E+02
              0.262880E+02
              0.128600E+02
              0.626040E+01
              0.285140E+01
              0.130580E+01
              0.583310E+00
              0.168490E+00
              0.856460E-01
              0.450770E-01
              0.219340E-01
      0.901890E-06           0.000000E+00           0.000000E+00           0.000000E+00           0.000000E+00           0.000000E+00           0.000000E+00
      0.701150E-05           0.000000E+00           0.000000E+00           0.000000E+00           0.000000E+00           0.000000E+00           0.000000E+00
      0.368920E-04           0.000000E+00           0.000000E+00           0.000000E+00           0.000000E+00           0.000000E+00           0.000000E+00
      0.155840E-03           0.000000E+00           0.000000E+00           0.000000E+00           0.000000E+00           0.000000E+00           0.000000E+00
      0.567840E-03           0.000000E+00           0.000000E+00           0.000000E+00           0.000000E+00           0.000000E+00           0.000000E+00
      0.184930E-02          -0.336150E-05           0.000000E+00           0.000000E+00           0.000000E+00           0.000000E+00           0.000000E+00
      0.548860E-02          -0.111860E-04           0.138720E-05           0.000000E+00           0.000000E+00           0.000000E+00           0.000000E+00
      0.148710E-01          -0.111260E-03           0.109740E-04           0.000000E+00           0.000000E+00           0.000000E+00           0.000000E+00
      0.363150E-01          -0.500000E-03           0.563830E-04           0.000000E+00           0.000000E+00           0.000000E+00           0.000000E+00
      0.775130E-01          -0.266410E-02           0.260100E-03           0.000000E+00           0.000000E+00           0.000000E+00           0.000000E+00
      0.135930E+00          -0.983480E-02           0.926960E-03           0.000000E+00           0.000000E+00           0.000000E+00           0.000000E+00
      0.164900E+00          -0.259640E-01           0.140020E-02           0.000000E+00           0.000000E+00           0.000000E+00           0.000000E+00
      0.112400E+00          -0.398890E-01           0.210320E-03           0.000000E+00           0.000000E+00           0.000000E+00           0.000000E+00
      0.265010E-01           0.292860E-01          -0.139360E-02           0.000000E+00           0.000000E+00           0.000000E+00           0.000000E+00
      0.682220E-04           0.167000E+00           0.633850E-01           0.000000E+00           0.000000E+00           0.000000E+00           0.000000E+00
      0.000000E+00           0.156890E+00           0.351780E+00           0.000000E+00           0.000000E+00           0.000000E+00           0.000000E+00
      0.000000E+00           0.000000E+00           0.459800E+00           0.000000E+00           0.000000E+00           0.000000E+00           0.000000E+00
      0.000000E+00           0.000000E+00           0.000000E+00           0.100000E+01           0.000000E+00           0.000000E+00           0.000000E+00
      0.000000E+00           0.000000E+00           0.000000E+00           0.000000E+00           0.100000E+01           0.000000E+00           0.000000E+00
      0.000000E+00           0.000000E+00           0.000000E+00           0.000000E+00           0.000000E+00           0.100000E+01           0.000000E+00
      0.000000E+00           0.000000E+00           0.000000E+00           0.000000E+00           0.000000E+00           0.000000E+00           0.100000E+01
* P-type functions
    15    5
              0.415780E+04
              0.984530E+03
              0.320090E+03
              0.121730E+03
              0.498920E+02
              0.225420E+02
              0.107490E+02
              0.528990E+01
              0.259960E+01
              0.125180E+01
              0.592460E+00
              0.269410E+00
              0.122500E+00
              0.557000E-01
              0.253000E-01
      0.123420E-04           0.000000E+00           0.000000E+00           0.000000E+00           0.000000E+00
      0.109780E-03           0.000000E+00           0.000000E+00           0.000000E+00           0.000000E+00
      0.630860E-03           0.000000E+00           0.000000E+00           0.000000E+00           0.000000E+00
      0.283310E-02           0.000000E+00           0.000000E+00           0.000000E+00           0.000000E+00
      0.107730E-01           0.000000E+00           0.000000E+00           0.000000E+00           0.000000E+00
      0.287720E-01           0.000000E+00           0.000000E+00           0.000000E+00           0.000000E+00
      0.665370E-01           0.000000E+00           0.000000E+00           0.000000E+00           0.000000E+00
      0.115570E+00           0.000000E+00           0.000000E+00           0.000000E+00           0.000000E+00
      0.154170E+00           0.000000E+00           0.000000E+00           0.000000E+00           0.000000E+00
      0.146650E+00           0.000000E+00           0.000000E+00           0.000000E+00           0.000000E+00
      0.819040E-01           0.000000E+00           0.000000E+00           0.000000E+00           0.000000E+00
      0.000000E+00           0.100000E+01           0.000000E+00           0.000000E+00           0.000000E+00
      0.000000E+00           0.000000E+00           0.100000E+01           0.000000E+00           0.000000E+00
      0.000000E+00           0.000000E+00           0.000000E+00           0.100000E+01           0.000000E+00
      0.000000E+00           0.000000E+00           0.000000E+00           0.000000E+00           0.100000E+01
* D-type functions
    3    3
              0.336000E+01
              0.800000E+00
              0.200000E+00
      0.100000E+01           0.000000E+00           0.000000E+00
      0.000000E+00           0.100000E+01           0.000000E+00
      0.000000E+00           0.000000E+00           0.100000E+01
* F-type functions
    2    2
              0.135000E+01
              0.300000E+00
      0.100000E+01           0.000000E+00
      0.000000E+00           0.100000E+01
* G-type functions
    1    1
              0.350000E+00
      0.100000E+01
/Al.PC-4.Jensen.21s16p6d3f2g1h.7s6p6d3f2g1h.
ALUMINUM       (21s,16p,6d,3f,2g,1h) -> [7s,6p,6d,3f,2g,1h]
ALUMINUM       (21s,16p,6d,3f,2g,1h) -> [7s,6p,6d,3f,2g,1h]
          13.   5
* S-type functions
    21    7
              0.384520E+07
              0.575260E+06
              0.130860E+06
              0.370630E+05
              0.120940E+05
              0.436680E+04
              0.170360E+04
              0.707130E+03
              0.308970E+03
              0.140710E+03
              0.659170E+02
              0.317300E+02
              0.155870E+02
              0.763820E+01
              0.354540E+01
              0.166790E+01
              0.769390E+00
              0.279170E+00
              0.140160E+00
              0.703360E-01
              0.336600E-01
      0.175380E-05           0.000000E+00           0.000000E+00           0.000000E+00           0.000000E+00           0.000000E+00           0.000000E+00
      0.136540E-04           0.000000E+00           0.000000E+00           0.000000E+00           0.000000E+00           0.000000E+00           0.000000E+00
[...]
      0.101610E-02          -0.337610E-06           0.000000E+00           0.000000E+00           0.000000E+00           0.000000E+00
      0.461720E-02           0.106260E-04           0.000000E+00           0.000000E+00           0.000000E+00           0.000000E+00
      0.171630E-01          -0.501760E-04           0.000000E+00           0.000000E+00           0.000000E+00           0.000000E+00
      0.481320E-01          -0.780470E-04           0.000000E+00           0.000000E+00           0.000000E+00           0.000000E+00
      0.117040E+00          -0.161880E-02           0.000000E+00           0.000000E+00           0.000000E+00           0.000000E+00
      0.216020E+00          -0.265510E-02           0.000000E+00           0.000000E+00           0.000000E+00           0.000000E+00
      0.295280E+00          -0.137770E-01           0.000000E+00           0.000000E+00           0.000000E+00           0.000000E+00
      0.288250E+00           0.242460E-02           0.000000E+00           0.000000E+00           0.000000E+00           0.000000E+00
      0.179820E+00           0.585720E-03           0.000000E+00           0.000000E+00           0.000000E+00           0.000000E+00
      0.000000E+00           0.165180E+00           0.000000E+00           0.000000E+00           0.000000E+00           0.000000E+00
      0.000000E+00           0.000000E+00           0.100000E+01           0.000000E+00           0.000000E+00           0.000000E+00
      0.000000E+00           0.000000E+00           0.000000E+00           0.100000E+01           0.000000E+00           0.000000E+00
      0.000000E+00           0.000000E+00           0.000000E+00           0.000000E+00           0.100000E+01           0.000000E+00
      0.000000E+00           0.000000E+00           0.000000E+00           0.000000E+00           0.000000E+00           0.100000E+01
* D-type functions
    6    6
              0.229300E+02
              0.655000E+01
              0.226000E+01
              0.810000E+00
              0.351000E+00
              0.146000E+00
      0.100000E+01           0.000000E+00           0.000000E+00           0.000000E+00           0.000000E+00           0.000000E+00
      0.000000E+00           0.100000E+01           0.000000E+00           0.000000E+00           0.000000E+00           0.000000E+00
      0.000000E+00           0.000000E+00           0.100000E+01           0.000000E+00           0.000000E+00           0.000000E+00
      0.000000E+00           0.000000E+00           0.000000E+00           0.100000E+01           0.000000E+00           0.000000E+00
      0.000000E+00           0.000000E+00           0.000000E+00           0.000000E+00           0.100000E+01           0.000000E+00
      0.000000E+00           0.000000E+00           0.000000E+00           0.000000E+00           0.000000E+00           0.100000E+01
* F-type functions
    3    3
              0.359000E+01
              0.840000E+00
              0.350000E+00
      0.100000E+01           0.000000E+00           0.000000E+00
      0.000000E+00           0.100000E+01           0.000000E+00
      0.000000E+00           0.000000E+00           0.100000E+01
* G-type functions
    2    2
              0.176000E+01
              0.590000E+00
      0.100000E+01           0.000000E+00
      0.000000E+00           0.100000E+01
* H-type functions
    1    1
              0.950000E+00
      0.100000E+01
/Cl.PC-4.Jensen.21s16p6d3f2g1h.7s6p6d3f2g1h.
CHLORINE       (21s,16p,6d,3f,2g,1h) -> [7s,6p,6d,3f,2g,1h]
CHLORINE       (21s,16p,6d,3f,2g,1h) -> [7s,6p,6d,3f,2g,1h]
          17.   5
* S-type functions
    21    7
              0.742120E+07
              0.114110E+07
              0.264430E+06
              0.757910E+05
              0.249250E+05
              0.905260E+04
              0.354810E+04
              0.147800E+04
              0.647350E+03
              0.295330E+03
              0.138980E+03
              0.675490E+02
              0.336610E+02
              0.170270E+02
              0.815040E+01
              0.413190E+01
              0.204570E+01
              0.940290E+00
              0.469010E+00
              0.222190E+00
              0.102200E+00
      0.149920E-05           0.000000E+00           0.000000E+00           0.000000E+00           0.000000E+00           0.000000E+00           0.000000E+00
      0.112430E-04           0.000000E+00           0.000000E+00           0.000000E+00           0.000000E+00           0.000000E+00           0.000000E+00
      0.580000E-04           0.000000E+00           0.000000E+00           0.000000E+00           0.000000E+00           0.000000E+00           0.000000E+00
      0.242150E-03           0.000000E+00           0.000000E+00           0.000000E+00           0.000000E+00           0.000000E+00           0.000000E+00
      0.875500E-03          -0.133580E-05           0.000000E+00           0.000000E+00           0.000000E+00           0.000000E+00           0.000000E+00
      0.283760E-02          -0.184400E-05          -0.370580E-05           0.000000E+00           0.000000E+00           0.000000E+00           0.000000E+00
      0.840860E-02          -0.581690E-04          -0.292350E-04           0.000000E+00           0.000000E+00           0.000000E+00           0.000000E+00
      0.229060E-01          -0.266340E-03          -0.189020E-03           0.000000E+00           0.000000E+00           0.000000E+00           0.000000E+00
      0.568950E-01          -0.191720E-02          -0.109400E-02           0.000000E+00           0.000000E+00           0.000000E+00           0.000000E+00
      0.125690E+00          -0.835970E-02          -0.529080E-02           0.000000E+00           0.000000E+00           0.000000E+00           0.000000E+00
      0.233270E+00          -0.375020E-01          -0.222050E-01           0.000000E+00           0.000000E+00           0.000000E+00           0.000000E+00
      0.318940E+00          -0.994950E-01          -0.624550E-01           0.000000E+00           0.000000E+00           0.000000E+00           0.000000E+00
      0.271170E+00          -0.206400E+00          -0.124390E+00           0.000000E+00           0.000000E+00           0.000000E+00           0.000000E+00
      0.102470E+00          -0.520630E-02          -0.149730E-01           0.000000E+00           0.000000E+00           0.000000E+00           0.000000E+00
      0.830670E-02           0.500480E+00           0.364400E+00           0.000000E+00           0.000000E+00           0.000000E+00           0.000000E+00
      0.000000E+00           0.833320E+00           0.687170E+00           0.000000E+00           0.000000E+00           0.000000E+00           0.000000E+00
      0.000000E+00           0.000000E+00           0.393430E+00           0.000000E+00           0.000000E+00           0.000000E+00           0.000000E+00
      0.000000E+00           0.000000E+00           0.000000E+00           0.100000E+01           0.000000E+00           0.000000E+00           0.000000E+00
      0.000000E+00           0.000000E+00           0.000000E+00           0.000000E+00           0.100000E+01           0.000000E+00           0.000000E+00
      0.000000E+00           0.000000E+00           0.000000E+00           0.000000E+00           0.000000E+00           0.100000E+01           0.000000E+00
      0.000000E+00           0.000000E+00           0.000000E+00           0.000000E+00           0.000000E+00           0.000000E+00           0.100000E+01
* P-type functions
    16    6
              0.110350E+05
              0.261150E+04
              0.848020E+03
              0.323000E+03
              0.135330E+03
              0.626840E+02
              0.302980E+02
              0.152400E+02
              0.792590E+01
              0.428530E+01
              0.230430E+01
              0.123570E+01
              0.600210E+00
              0.287390E+00
              0.131850E+00
              0.569700E-01
      0.185140E-04           0.000000E+00           0.000000E+00           0.000000E+00           0.000000E+00           0.000000E+00
      0.165270E-03           0.561370E-06           0.000000E+00           0.000000E+00           0.000000E+00           0.000000E+00
      0.962330E-03          -0.348440E-06           0.000000E+00           0.000000E+00           0.000000E+00           0.000000E+00
      0.437770E-02           0.920070E-05           0.000000E+00           0.000000E+00           0.000000E+00           0.000000E+00
      0.162180E-01          -0.511180E-04           0.000000E+00           0.000000E+00           0.000000E+00           0.000000E+00
      0.461040E-01          -0.105970E-03           0.000000E+00           0.000000E+00           0.000000E+00           0.000000E+00
      0.113480E+00          -0.166890E-02           0.000000E+00           0.000000E+00           0.000000E+00           0.000000E+00
      0.213530E+00          -0.309980E-02           0.000000E+00           0.000000E+00           0.000000E+00           0.000000E+00
      0.294380E+00          -0.146280E-01           0.000000E+00           0.000000E+00           0.000000E+00           0.000000E+00
      0.287780E+00           0.123450E-02           0.000000E+00           0.000000E+00           0.000000E+00           0.000000E+00
      0.182690E+00           0.153150E-02           0.000000E+00           0.000000E+00           0.000000E+00           0.000000E+00
      0.000000E+00           0.169930E+00           0.000000E+00           0.000000E+00           0.000000E+00           0.000000E+00
      0.000000E+00           0.000000E+00           0.100000E+01           0.000000E+00           0.000000E+00           0.000000E+00
      0.000000E+00           0.000000E+00           0.000000E+00           0.100000E+01           0.000000E+00           0.000000E+00
      0.000000E+00           0.000000E+00           0.000000E+00           0.000000E+00           0.100000E+01           0.000000E+00
      0.000000E+00           0.000000E+00           0.000000E+00           0.000000E+00           0.000000E+00           0.100000E+01
* D-type functions
    6    6
              0.246300E+02
              0.704000E+01
              0.243000E+01
              0.870000E+00
              0.377000E+00
              0.157000E+00
      0.100000E+01           0.000000E+00           0.000000E+00           0.000000E+00           0.000000E+00           0.000000E+00
      0.000000E+00           0.100000E+01           0.000000E+00           0.000000E+00           0.000000E+00           0.000000E+00
      0.000000E+00           0.000000E+00           0.100000E+01           0.000000E+00           0.000000E+00           0.000000E+00
      0.000000E+00           0.000000E+00           0.000000E+00           0.100000E+01           0.000000E+00           0.000000E+00
      0.000000E+00           0.000000E+00           0.000000E+00           0.000000E+00           0.100000E+01           0.000000E+00
      0.000000E+00           0.000000E+00           0.000000E+00           0.000000E+00           0.000000E+00           0.100000E+01
* F-type functions
    3    3
              0.406000E+01
              0.950000E+00
              0.390000E+00
      0.100000E+01           0.000000E+00           0.000000E+00
      0.000000E+00           0.100000E+01           0.000000E+00
      0.000000E+00           0.000000E+00           0.100000E+01
* G-type functions
    2    2
              0.197000E+01
              0.660000E+00
      0.100000E+01           0.000000E+00
      0.000000E+00           0.100000E+01
* H-type functions
    1    1
              0.104000E+01
      0.100000E+01
/Ar.PC-4.Jensen.21s16p6d3f2g1h.7s6p6d3f2g1h.
ARGON       (21s,16p,6d,3f,2g,1h) -> [7s,6p,6d,3f,2g,1h]
ARGON       (21s,16p,6d,3f,2g,1h) -> [7s,6p,6d,3f,2g,1h]
          18.   5
* S-type functions
    21    7
              0.944510E+07
              0.141410E+07
              0.321810E+06
              0.911580E+05
              0.297430E+05
              0.107400E+05
              0.419000E+04
              0.173890E+04
              0.759290E+03
              0.345500E+03
              0.162360E+03
              0.788880E+02
              0.393210E+02
              0.199180E+02
              0.957640E+01
              0.491610E+01
              0.246480E+01
              0.118300E+01
              0.575210E+00
              0.270410E+00
              0.123120E+00
      0.647130E-06           0.000000E+00           0.000000E+00           0.000000E+00           0.000000E+00           0.000000E+00           0.000000E+00
      0.503360E-05           0.000000E+00           0.000000E+00           0.000000E+00           0.000000E+00           0.000000E+00           0.000000E+00
      0.264820E-04           0.000000E+00           0.000000E+00           0.000000E+00           0.000000E+00           0.000000E+00           0.000000E+00
      0.111900E-03           0.000000E+00           0.000000E+00           0.000000E+00           0.000000E+00           0.000000E+00           0.000000E+00
      0.407910E-03          -0.562840E-06           0.000000E+00           0.000000E+00           0.000000E+00           0.000000E+00           0.000000E+00
      0.133090E-02          -0.404410E-06          -0.430140E-05           0.000000E+00           0.000000E+00           0.000000E+00           0.000000E+00
      0.396580E-02          -0.236590E-04          -0.322640E-04           0.000000E+00           0.000000E+00           0.000000E+00           0.000000E+00
      0.108630E-01          -0.102670E-03          -0.215590E-03           0.000000E+00           0.000000E+00           0.000000E+00           0.000000E+00
      0.271590E-01          -0.778910E-03          -0.124380E-02           0.000000E+00           0.000000E+00           0.000000E+00           0.000000E+00
      0.605140E-01          -0.337400E-02          -0.612440E-02           0.000000E+00           0.000000E+00           0.000000E+00           0.000000E+00
      0.113510E+00          -0.154820E-01          -0.258780E-01           0.000000E+00           0.000000E+00           0.000000E+00           0.000000E+00
      0.158270E+00          -0.416870E-01          -0.748300E-01           0.000000E+00           0.000000E+00           0.000000E+00           0.000000E+00
      0.139000E+00          -0.894240E-01          -0.152780E+00           0.000000E+00           0.000000E+00           0.000000E+00           0.000000E+00
      0.556450E-01          -0.106220E-01          -0.370790E-01           0.000000E+00           0.000000E+00           0.000000E+00           0.000000E+00
      0.513770E-02           0.200990E+00           0.435240E+00           0.000000E+00           0.000000E+00           0.000000E+00           0.000000E+00
      0.000000E+00           0.367220E+00           0.885820E+00           0.000000E+00           0.000000E+00           0.000000E+00           0.000000E+00
      0.000000E+00           0.000000E+00           0.609510E+00           0.000000E+00           0.000000E+00           0.000000E+00           0.000000E+00
      0.000000E+00           0.000000E+00           0.000000E+00           0.100000E+01           0.000000E+00           0.000000E+00           0.000000E+00
      0.000000E+00           0.000000E+00           0.000000E+00           0.000000E+00           0.100000E+01           0.000000E+00           0.000000E+00
      0.000000E+00           0.000000E+00           0.000000E+00           0.000000E+00           0.000000E+00           0.100000E+01           0.000000E+00
      0.000000E+00           0.000000E+00           0.000000E+00           0.000000E+00           0.000000E+00           0.000000E+00           0.100000E+01
* P-type functions
    16    6
              0.130060E+05
              0.307810E+04
              0.999560E+03
              0.380970E+03
              0.160280E+03
              0.744940E+02
              0.360650E+02
              0.181640E+02
              0.946650E+01
              0.516300E+01
              0.280850E+01
              0.152350E+01
              0.743790E+00
              0.356800E+00
              0.162210E+00
              0.699560E-01
      0.869280E-05           0.000000E+00           0.000000E+00           0.000000E+00           0.000000E+00           0.000000E+00
      0.776110E-04           0.275660E-05           0.000000E+00           0.000000E+00           0.000000E+00           0.000000E+00
      0.452490E-03          -0.182720E-05           0.000000E+00           0.000000E+00           0.000000E+00           0.000000E+00
      0.205950E-02           0.453980E-04           0.000000E+00           0.000000E+00           0.000000E+00           0.000000E+00
      0.758720E-02          -0.255510E-03           0.000000E+00           0.000000E+00           0.000000E+00           0.000000E+00
      0.218220E-01          -0.549680E-03           0.000000E+00           0.000000E+00           0.000000E+00           0.000000E+00
      0.543320E-01          -0.835420E-02           0.000000E+00           0.000000E+00           0.000000E+00           0.000000E+00
      0.104420E+00          -0.165040E-01           0.000000E+00           0.000000E+00           0.000000E+00           0.000000E+00
      0.146450E+00          -0.765420E-01           0.000000E+00           0.000000E+00           0.000000E+00           0.000000E+00
      0.144260E+00           0.166060E-02           0.000000E+00           0.000000E+00           0.000000E+00           0.000000E+00
      0.943790E-01           0.120150E-02           0.000000E+00           0.000000E+00           0.000000E+00           0.000000E+00
      0.000000E+00           0.851690E+00           0.000000E+00           0.000000E+00           0.000000E+00           0.000000E+00
      0.000000E+00           0.000000E+00           0.100000E+01           0.000000E+00           0.000000E+00           0.000000E+00
      0.000000E+00           0.000000E+00           0.000000E+00           0.100000E+01           0.000000E+00           0.000000E+00
      0.000000E+00           0.000000E+00           0.000000E+00           0.000000E+00           0.100000E+01           0.000000E+00
      0.000000E+00           0.000000E+00           0.000000E+00           0.000000E+00           0.000000E+00           0.100000E+01
* D-type functions
    6    6
              0.263300E+02
              0.753000E+01
              0.260000E+01
              0.930000E+00
              0.410000E+00
              0.170000E+00
      0.100000E+01           0.000000E+00           0.000000E+00           0.000000E+00           0.000000E+00           0.000000E+00
      0.000000E+00           0.100000E+01           0.000000E+00           0.000000E+00           0.000000E+00           0.000000E+00
      0.000000E+00           0.000000E+00           0.100000E+01           0.000000E+00           0.000000E+00           0.000000E+00
      0.000000E+00           0.000000E+00           0.000000E+00           0.100000E+01           0.000000E+00           0.000000E+00
      0.000000E+00           0.000000E+00           0.000000E+00           0.000000E+00           0.100000E+01           0.000000E+00
      0.000000E+00           0.000000E+00           0.000000E+00           0.000000E+00           0.000000E+00           0.100000E+01
* F-type functions
    3    3
              0.453000E+01
              0.106000E+01
              0.440000E+00
      0.100000E+01           0.000000E+00           0.000000E+00
      0.000000E+00           0.100000E+01           0.000000E+00
      0.000000E+00           0.000000E+00           0.100000E+01
* G-type functions
    2    2
              0.218000E+01
              0.730000E+00
      0.100000E+01           0.000000E+00
      0.000000E+00           0.100000E+01
* H-type functions
    1    1
              0.112000E+01
      0.100000E+01
