************************************************************************
* This file is part of OpenMolcas.                                     *
*                                                                      *
* OpenMolcas is free software; you can redistribute it and/or modify   *
* it under the terms of the GNU Lesser General Public License, v. 2.1. *
* OpenMolcas is distributed in the hope that it will be useful, but it *
* is provided "as is" and without any express or implied warranties.   *
* For more details see the full text of the license in the file        *
* LICENSE or in <http://www.gnu.org/licenses/>.                        *
************************************************************************

#Hamiltonian NRH
#Nucleus UNK
#Contraction SEG
#AllElectron AE_

************************************************************************
* This file has been generated from Basis Set Exchange data:           *
*   https://www.basissetexchange.org                                   *
* Version: 0  (Data from the Original Basis Set Exchange)              *
************************************************************************

/H.pc-4.Jensen.11s6p3d2f1g.7s6p3d2f1g.
F. Jensen. J. Chem. Phys. 116 (2002) 7372-7379. doi:10.1063/1.1465405
HYDROGEN (11s,6p,3d,2f,1g) -> [7s,6p,3d,2f,1g]
     1.0   4
* s-type functions
   11    7
       3079.70000000
        461.52000000
        105.06000000
         29.76400000
          9.71830000
          3.51790000
          1.37700000
          0.56831000
          0.24341000
          0.10505000
          0.04419800
   0.00023473   0.00000000   0.00000000   0.00000000   0.00000000   0.00000000   0.00000000
   0.00182450   0.00000000   0.00000000   0.00000000   0.00000000   0.00000000   0.00000000
   0.00959330   0.00000000   0.00000000   0.00000000   0.00000000   0.00000000   0.00000000
   0.04046100   0.00000000   0.00000000   0.00000000   0.00000000   0.00000000   0.00000000
   0.14607000   0.00000000   0.00000000   0.00000000   0.00000000   0.00000000   0.00000000
   0.00000000   1.00000000   0.00000000   0.00000000   0.00000000   0.00000000   0.00000000
   0.00000000   0.00000000   1.00000000   0.00000000   0.00000000   0.00000000   0.00000000
   0.00000000   0.00000000   0.00000000   1.00000000   0.00000000   0.00000000   0.00000000
   0.00000000   0.00000000   0.00000000   0.00000000   1.00000000   0.00000000   0.00000000
   0.00000000   0.00000000   0.00000000   0.00000000   0.00000000   1.00000000   0.00000000
   0.00000000   0.00000000   0.00000000   0.00000000   0.00000000   0.00000000   1.00000000
* p-type functions
    6    6
         30.00000000
          6.60000000
          2.10000000
          0.95000000
          0.45000000
          0.15000000
   1.00000000   0.00000000   0.00000000   0.00000000   0.00000000   0.00000000
   0.00000000   1.00000000   0.00000000   0.00000000   0.00000000   0.00000000
   0.00000000   0.00000000   1.00000000   0.00000000   0.00000000   0.00000000
   0.00000000   0.00000000   0.00000000   1.00000000   0.00000000   0.00000000
   0.00000000   0.00000000   0.00000000   0.00000000   1.00000000   0.00000000
   0.00000000   0.00000000   0.00000000   0.00000000   0.00000000   1.00000000
* d-type functions
    3    3
          2.10000000
          0.70000000
          0.30000000
   1.00000000   0.00000000   0.00000000
   0.00000000   1.00000000   0.00000000
   0.00000000   0.00000000   1.00000000
* f-type functions
    2    2
          2.50000000
          0.90000000
   1.00000000   0.00000000
   0.00000000   1.00000000
* g-type functions
    1    1
          3.20000000
   1.00000000

/He.pc-4.Jensen.11s6p3d2f1g.7s6p3d2f1g.
F. Jensen. J. Phys. Chem. A 111 (2007) 11198-11204. doi:10.1021/jp068677h
HELIUM (11s,6p,3d,2f,1g) -> [7s,6p,3d,2f,1g]
     2.0   4
* s-type functions
   11    7
       8780.20000000
       1315.60000000
        299.46000000
         84.83300000
         27.69100000
         10.00800000
          3.89240000
          1.58190000
          0.65698000
          0.26459000
          0.10585000
   0.00146640   0.00000000   0.00000000   0.00000000   0.00000000   0.00000000   0.00000000
   0.01139500   0.00000000   0.00000000   0.00000000   0.00000000   0.00000000   0.00000000
   0.05981900   0.00000000   0.00000000   0.00000000   0.00000000   0.00000000   0.00000000
   0.25089000   0.00000000   0.00000000   0.00000000   0.00000000   0.00000000   0.00000000
   0.89135000   0.00000000   0.00000000   0.00000000   0.00000000   0.00000000   0.00000000
   0.00000000   1.00000000   0.00000000   0.00000000   0.00000000   0.00000000   0.00000000
   0.00000000   0.00000000   1.00000000   0.00000000   0.00000000   0.00000000   0.00000000
   0.00000000   0.00000000   0.00000000   1.00000000   0.00000000   0.00000000   0.00000000
   0.00000000   0.00000000   0.00000000   0.00000000   1.00000000   0.00000000   0.00000000
   0.00000000   0.00000000   0.00000000   0.00000000   0.00000000   1.00000000   0.00000000
   0.00000000   0.00000000   0.00000000   0.00000000   0.00000000   0.00000000   1.00000000
* p-type functions
    6    6
         40.50000000
          8.90000000
          2.85000000
          1.30000000
          0.60000000
          0.20000000
   1.00000000   0.00000000   0.00000000   0.00000000   0.00000000   0.00000000
   0.00000000   1.00000000   0.00000000   0.00000000   0.00000000   0.00000000
   0.00000000   0.00000000   1.00000000   0.00000000   0.00000000   0.00000000
   0.00000000   0.00000000   0.00000000   1.00000000   0.00000000   0.00000000
   0.00000000   0.00000000   0.00000000   0.00000000   1.00000000   0.00000000
   0.00000000   0.00000000   0.00000000   0.00000000   0.00000000   1.00000000
* d-type functions
    3    3
          3.70000000
          1.20000000
          0.50000000
   1.00000000   0.00000000   0.00000000
   0.00000000   1.00000000   0.00000000
   0.00000000   0.00000000   1.00000000
* f-type functions
    2    2
          4.10000000
          1.50000000
   1.00000000   0.00000000
   0.00000000   1.00000000
* g-type functions
    1    1
          4.65000000
   1.00000000

/Li.pc-4.Jensen.19s8p3d2f1g.8s4p3d2f1g.
F. Jensen. J. Phys. Chem. A 111 (2007) 11198-11204. doi:10.1021/jp068677h
LITHIUM (19s,8p,3d,2f,1g) -> [8s,4p,3d,2f,1g]
     3.0   4
* s-type functions
   19    8
      70681.00000000
      13594.00000000
       3100.40000000
        826.46000000
        253.76000000
         88.45100000
         34.49300000
         14.83100000
          6.92990000
          3.46780000
          1.83160000
          1.00630000
          0.56678000
          0.32254000
          0.18277000
          0.10164000
          0.05466600
          0.02802500
          0.01349700
   5.43830e-6   0.00000000   0.00000000   0.00000000   0.00000000   0.00000000   0.00000000   0.00000000
   3.32770e-5  -1.13820e-7   0.00000000   0.00000000   0.00000000   0.00000000   0.00000000   0.00000000
   0.00019175   1.71230e-7   0.00000000   0.00000000   0.00000000   0.00000000   0.00000000   0.00000000
   0.00089686  -3.57470e-6   0.00000000   0.00000000   0.00000000   0.00000000   0.00000000   0.00000000
   0.00344770   8.59400e-6   0.00000000   0.00000000   0.00000000   0.00000000   0.00000000   0.00000000
   0.01143500  -5.55670e-5   0.00000000   0.00000000   0.00000000   0.00000000   0.00000000   0.00000000
   0.03095700   0.00028213   0.00000000   0.00000000   0.00000000   0.00000000   0.00000000   0.00000000
   0.07323700  -0.00045594   0.00000000   0.00000000   0.00000000   0.00000000   0.00000000   0.00000000
   0.12668000   0.00524910   0.00000000   0.00000000   0.00000000   0.00000000   0.00000000   0.00000000
   0.21423000  -0.00487050   0.00000000   0.00000000   0.00000000   0.00000000   0.00000000   0.00000000
   0.17857000   0.04683100   0.00000000   0.00000000   0.00000000   0.00000000   0.00000000   0.00000000
   0.28492000  -0.03228200   0.00000000   0.00000000   0.00000000   0.00000000   0.00000000   0.00000000
   0.00000000   0.10296000   0.00000000   0.00000000   0.00000000   0.00000000   0.00000000   0.00000000
   0.00000000   0.00000000   1.00000000   0.00000000   0.00000000   0.00000000   0.00000000   0.00000000
   0.00000000   0.00000000   0.00000000   1.00000000   0.00000000   0.00000000   0.00000000   0.00000000
   0.00000000   0.00000000   0.00000000   0.00000000   1.00000000   0.00000000   0.00000000   0.00000000
   0.00000000   0.00000000   0.00000000   0.00000000   0.00000000   1.00000000   0.00000000   0.00000000
   0.00000000   0.00000000   0.00000000   0.00000000   0.00000000   0.00000000   1.00000000   0.00000000
   0.00000000   0.00000000   0.00000000   0.00000000   0.00000000   0.00000000   0.00000000   1.00000000
* p-type functions
    8    4
         28.50000000
          6.64000000
          1.92000000
          0.77000000
          0.32000000
          0.15000000
          0.06600000
          0.02500000
   3.67542e-4   0.00000000   0.00000000   0.00000000
   0.00322359   0.00000000   0.00000000   0.00000000
   0.01432120   0.00000000   0.00000000   0.00000000
   0.03648140   0.00000000   0.00000000   0.00000000
   0.07577460   0.00000000   0.00000000   0.00000000
   0.00000000   1.00000000   0.00000000   0.00000000
   0.00000000   0.00000000   1.00000000   0.00000000
   0.00000000   0.00000000   0.00000000   1.00000000
* d-type functions
    3    3
          1.75000000
          0.30000000
          0.11000000
   1.00000000   0.00000000   0.00000000
   0.00000000   1.00000000   0.00000000
   0.00000000   0.00000000   1.00000000
* f-type functions
    2    2
          0.50000000
          0.20000000
   1.00000000   0.00000000
   0.00000000   1.00000000
* g-type functions
    1    1
          0.55000000
   1.00000000

/Be.pc-4.Jensen.19s8p3d2f1g.8s4p3d2f1g.
F. Jensen. J. Phys. Chem. A 111 (2007) 11198-11204. doi:10.1021/jp068677h
BERYLLIUM (19s,8p,3d,2f,1g) -> [8s,4p,3d,2f,1g]
     4.0   4
* s-type functions
   19    8
     139330.00000000
      26774.00000000
       6112.00000000
       1632.90000000
        503.03000000
        176.03000000
         68.93900000
         29.76800000
         13.96300000
          7.00900000
          3.70940000
          2.03920000
          1.14720000
          0.65070000
          0.36659000
          0.20211000
          0.10742000
          0.05423100
          0.02561900
   2.43820e-6   0.00000000   0.00000000   0.00000000   0.00000000   0.00000000   0.00000000   0.00000000
   1.49380e-5  -3.96870e-7   0.00000000   0.00000000   0.00000000   0.00000000   0.00000000   0.00000000
   8.58010e-5   6.01210e-7   0.00000000   0.00000000   0.00000000   0.00000000   0.00000000   0.00000000
   0.00040022  -1.22410e-5   0.00000000   0.00000000   0.00000000   0.00000000   0.00000000   0.00000000
   0.00152890   3.23520e-5   0.00000000   0.00000000   0.00000000   0.00000000   0.00000000   0.00000000
   0.00505860  -0.00017006   0.00000000   0.00000000   0.00000000   0.00000000   0.00000000   0.00000000
   0.01364400   0.00113620   0.00000000   0.00000000   0.00000000   0.00000000   0.00000000   0.00000000
   0.03273000  -0.00064192   0.00000000   0.00000000   0.00000000   0.00000000   0.00000000   0.00000000
   0.05754600   0.02159000   0.00000000   0.00000000   0.00000000   0.00000000   0.00000000   0.00000000
   0.10067000   0.00042561   0.00000000   0.00000000   0.00000000   0.00000000   0.00000000   0.00000000
   0.08634800   0.18149000   0.00000000   0.00000000   0.00000000   0.00000000   0.00000000   0.00000000
   0.12653000   0.01235200   0.00000000   0.00000000   0.00000000   0.00000000   0.00000000   0.00000000
   0.00000000   0.38475000   0.00000000   0.00000000   0.00000000   0.00000000   0.00000000   0.00000000
   0.00000000   0.00000000   1.00000000   0.00000000   0.00000000   0.00000000   0.00000000   0.00000000
   0.00000000   0.00000000   0.00000000   1.00000000   0.00000000   0.00000000   0.00000000   0.00000000
   0.00000000   0.00000000   0.00000000   0.00000000   1.00000000   0.00000000   0.00000000   0.00000000
   0.00000000   0.00000000   0.00000000   0.00000000   0.00000000   1.00000000   0.00000000   0.00000000
   0.00000000   0.00000000   0.00000000   0.00000000   0.00000000   0.00000000   1.00000000   0.00000000
   0.00000000   0.00000000   0.00000000   0.00000000   0.00000000   0.00000000   0.00000000   1.00000000
* p-type functions
    8    4
         45.70000000
         10.60000000
          3.08000000
          1.23000000
          0.51000000
          0.23000000
          0.10600000
          0.04000000
   6.58771e-4   0.00000000   0.00000000   0.00000000
   0.00573382   0.00000000   0.00000000   0.00000000
   0.02784590   0.00000000   0.00000000   0.00000000
   0.05643490   0.00000000   0.00000000   0.00000000
   0.17616700   0.00000000   0.00000000   0.00000000
   0.00000000   1.00000000   0.00000000   0.00000000
   0.00000000   0.00000000   1.00000000   0.00000000
   0.00000000   0.00000000   0.00000000   1.00000000
* d-type functions
    3    3
          3.35000000
          0.57000000
          0.21000000
   1.00000000   0.00000000   0.00000000
   0.00000000   1.00000000   0.00000000
   0.00000000   0.00000000   1.00000000
* f-type functions
    2    2
          0.75000000
          0.30000000
   1.00000000   0.00000000
   0.00000000   1.00000000
* g-type functions
    1    1
          0.80000000
   1.00000000

/B.pc-4.Jensen.18s11p6d3f2g1h.8s7p6d3f2g1h.
F. Jensen. J. Phys. Chem. A 111 (2007) 11198-11204. doi:10.1021/jp068677h
BORON (18s,11p,6d,3f,2g,1h) -> [8s,7p,6d,3f,2g,1h]
     5.0   5
* s-type functions
   18    8
     742500.00000000
     110930.00000000
      25203.00000000
       7129.30000000
       2324.70000000
        839.05000000
        327.79000000
        136.72000000
         60.29400000
         27.73100000
         12.99200000
          6.25510000
          3.14720000
          1.56270000
          0.74066000
          0.31290000
          0.13142000
          0.05470700
   1.21880e-6   0.00000000   0.00000000   0.00000000   0.00000000   0.00000000   0.00000000   0.00000000
   9.43530e-6   0.00000000   0.00000000   0.00000000   0.00000000   0.00000000   0.00000000   0.00000000
   5.02810e-5   0.00000000   0.00000000   0.00000000   0.00000000   0.00000000   0.00000000   0.00000000
   0.00020962   2.31100e-6   0.00000000   0.00000000   0.00000000   0.00000000   0.00000000   0.00000000
   0.00077739  -3.66080e-6   0.00000000   0.00000000   0.00000000   0.00000000   0.00000000   0.00000000
   0.00247190   4.94850e-5   0.00000000   0.00000000   0.00000000   0.00000000   0.00000000   0.00000000
   0.00746650   1.94280e-5   0.00000000   0.00000000   0.00000000   0.00000000   0.00000000   0.00000000
   0.01909500   0.00110270   0.00000000   0.00000000   0.00000000   0.00000000   0.00000000   0.00000000
   0.04670600   0.00268300   0.00000000   0.00000000   0.00000000   0.00000000   0.00000000   0.00000000
   0.08501500   0.02218600   0.00000000   0.00000000   0.00000000   0.00000000   0.00000000   0.00000000
   0.14297000   0.06084500   0.00000000   0.00000000   0.00000000   0.00000000   0.00000000   0.00000000
   0.00000000   0.28114000   0.00000000   0.00000000   0.00000000   0.00000000   0.00000000   0.00000000
   0.00000000   0.00000000   1.00000000   0.00000000   0.00000000   0.00000000   0.00000000   0.00000000
   0.00000000   0.00000000   0.00000000   1.00000000   0.00000000   0.00000000   0.00000000   0.00000000
   0.00000000   0.00000000   0.00000000   0.00000000   1.00000000   0.00000000   0.00000000   0.00000000
   0.00000000   0.00000000   0.00000000   0.00000000   0.00000000   1.00000000   0.00000000   0.00000000
   0.00000000   0.00000000   0.00000000   0.00000000   0.00000000   0.00000000   1.00000000   0.00000000
   0.00000000   0.00000000   0.00000000   0.00000000   0.00000000   0.00000000   0.00000000   1.00000000
* p-type functions
   11    7
        227.84000000
         53.92200000
         17.04800000
          6.00200000
          2.60660000
          1.19620000
          0.56967000
          0.27377000
          0.12880000
          0.05965300
          0.02619000
   0.00112430   0.00000000   0.00000000   0.00000000   0.00000000   0.00000000   0.00000000
   0.00973930   0.00000000   0.00000000   0.00000000   0.00000000   0.00000000   0.00000000
   0.05453600   0.00000000   0.00000000   0.00000000   0.00000000   0.00000000   0.00000000
   0.23171000   0.00000000   0.00000000   0.00000000   0.00000000   0.00000000   0.00000000
   0.49931000   0.00000000   0.00000000   0.00000000   0.00000000   0.00000000   0.00000000
   0.00000000   1.00000000   0.00000000   0.00000000   0.00000000   0.00000000   0.00000000
   0.00000000   0.00000000   1.00000000   0.00000000   0.00000000   0.00000000   0.00000000
   0.00000000   0.00000000   0.00000000   1.00000000   0.00000000   0.00000000   0.00000000
   0.00000000   0.00000000   0.00000000   0.00000000   1.00000000   0.00000000   0.00000000
   0.00000000   0.00000000   0.00000000   0.00000000   0.00000000   1.00000000   0.00000000
   0.00000000   0.00000000   0.00000000   0.00000000   0.00000000   0.00000000   1.00000000
* d-type functions
    6    6
          5.30000000
          1.90000000
          0.75000000
          0.35000000
          0.16000000
          0.06000000
   1.00000000   0.00000000   0.00000000   0.00000000   0.00000000   0.00000000
   0.00000000   1.00000000   0.00000000   0.00000000   0.00000000   0.00000000
   0.00000000   0.00000000   1.00000000   0.00000000   0.00000000   0.00000000
   0.00000000   0.00000000   0.00000000   1.00000000   0.00000000   0.00000000
   0.00000000   0.00000000   0.00000000   0.00000000   1.00000000   0.00000000
   0.00000000   0.00000000   0.00000000   0.00000000   0.00000000   1.00000000
* f-type functions
    3    3
          1.90000000
          0.80000000
          0.35000000
   1.00000000   0.00000000   0.00000000
   0.00000000   1.00000000   0.00000000
   0.00000000   0.00000000   1.00000000
* g-type functions
    2    2
          1.65000000
          0.70000000
   1.00000000   0.00000000
   0.00000000   1.00000000
* h-type functions
    1    1
          1.75000000
   1.00000000

/C.pc-4.Jensen.18s11p6d3f2g1h.8s7p6d3f2g1h.
F. Jensen. J. Chem. Phys. 116 (2002) 7372-7379. doi:10.1063/1.1465405
CARBON (18s,11p,6d,3f,2g,1h) -> [8s,7p,6d,3f,2g,1h]
     6.0   5
* s-type functions
   18    8
     527780.00000000
      79105.00000000
      18006.00000000
       5100.80000000
       1664.70000000
        601.66000000
        235.40000000
         98.26300000
         43.26900000
         19.85800000
          9.56920000
          4.93730000
          2.66870000
          1.46740000
          0.63863000
          0.30240000
          0.14116000
          0.06374900
   2.96620e-6   0.00000000   0.00000000   0.00000000   0.00000000   0.00000000   0.00000000   0.00000000
   2.31550e-5   0.00000000   0.00000000   0.00000000   0.00000000   0.00000000   0.00000000   0.00000000
   0.00012089   3.56630e-7   0.00000000   0.00000000   0.00000000   0.00000000   0.00000000   0.00000000
   0.00051490  -3.58770e-6   0.00000000   0.00000000   0.00000000   0.00000000   0.00000000   0.00000000
   0.00184580   1.80860e-5   0.00000000   0.00000000   0.00000000   0.00000000   0.00000000   0.00000000
   0.00602860   1.24610e-6   0.00000000   0.00000000   0.00000000   0.00000000   0.00000000   0.00000000
   0.01702300   0.00071075   0.00000000   0.00000000   0.00000000   0.00000000   0.00000000   0.00000000
   0.04407700   0.00253460   0.00000000   0.00000000   0.00000000   0.00000000   0.00000000   0.00000000
   0.08906100   0.01993400   0.00000000   0.00000000   0.00000000   0.00000000   0.00000000   0.00000000
   0.14817000   0.06504700   0.00000000   0.00000000   0.00000000   0.00000000   0.00000000   0.00000000
   0.06143600   0.27000000   0.00000000   0.00000000   0.00000000   0.00000000   0.00000000   0.00000000
   0.00000000   0.32854000   0.00000000   0.00000000   0.00000000   0.00000000   0.00000000   0.00000000
   0.00000000   0.00000000   1.00000000   0.00000000   0.00000000   0.00000000   0.00000000   0.00000000
   0.00000000   0.00000000   0.00000000   1.00000000   0.00000000   0.00000000   0.00000000   0.00000000
   0.00000000   0.00000000   0.00000000   0.00000000   1.00000000   0.00000000   0.00000000   0.00000000
   0.00000000   0.00000000   0.00000000   0.00000000   0.00000000   1.00000000   0.00000000   0.00000000
   0.00000000   0.00000000   0.00000000   0.00000000   0.00000000   0.00000000   1.00000000   0.00000000
   0.00000000   0.00000000   0.00000000   0.00000000   0.00000000   0.00000000   0.00000000   1.00000000
* p-type functions
   11    7
        382.21000000
         90.48900000
         28.87100000
         10.38500000
          4.49720000
          2.02740000
          0.95154000
          0.44815000
          0.20721000
          0.09487000
          0.04084300
   0.00098484   0.00000000   0.00000000   0.00000000   0.00000000   0.00000000   0.00000000
   0.00858470   0.00000000   0.00000000   0.00000000   0.00000000   0.00000000   0.00000000
   0.04827200   0.00000000   0.00000000   0.00000000   0.00000000   0.00000000   0.00000000
   0.20454000   0.00000000   0.00000000   0.00000000   0.00000000   0.00000000   0.00000000
   0.49867000   0.00000000   0.00000000   0.00000000   0.00000000   0.00000000   0.00000000
   0.00000000   1.00000000   0.00000000   0.00000000   0.00000000   0.00000000   0.00000000
   0.00000000   0.00000000   1.00000000   0.00000000   0.00000000   0.00000000   0.00000000
   0.00000000   0.00000000   0.00000000   1.00000000   0.00000000   0.00000000   0.00000000
   0.00000000   0.00000000   0.00000000   0.00000000   1.00000000   0.00000000   0.00000000
   0.00000000   0.00000000   0.00000000   0.00000000   0.00000000   1.00000000   0.00000000
   0.00000000   0.00000000   0.00000000   0.00000000   0.00000000   0.00000000   1.00000000
* d-type functions
    6    6
          8.40000000
          3.00000000
          1.20000000
          0.55000000
          0.25000000
          0.10000000
   1.00000000   0.00000000   0.00000000   0.00000000   0.00000000   0.00000000
   0.00000000   1.00000000   0.00000000   0.00000000   0.00000000   0.00000000
   0.00000000   0.00000000   1.00000000   0.00000000   0.00000000   0.00000000
   0.00000000   0.00000000   0.00000000   1.00000000   0.00000000   0.00000000
   0.00000000   0.00000000   0.00000000   0.00000000   1.00000000   0.00000000
   0.00000000   0.00000000   0.00000000   0.00000000   0.00000000   1.00000000
* f-type functions
    3    3
          2.10000000
          0.90000000
          0.40000000
   1.00000000   0.00000000   0.00000000
   0.00000000   1.00000000   0.00000000
   0.00000000   0.00000000   1.00000000
* g-type functions
    2    2
          2.10000000
          0.90000000
   1.00000000   0.00000000
   0.00000000   1.00000000
* h-type functions
    1    1
          1.85000000
   1.00000000

/N.pc-4.Jensen.18s11p6d3f2g1h.8s7p6d3f2g1h.
F. Jensen. J. Chem. Phys. 116 (2002) 7372-7379. doi:10.1063/1.1465405
NITROGEN (18s,11p,6d,3f,2g,1h) -> [8s,7p,6d,3f,2g,1h]
     7.0   5
* s-type functions
   18    8
     894760.00000000
     134830.00000000
      30808.00000000
       8751.50000000
       2862.00000000
       1035.30000000
        404.73000000
        168.33000000
         73.69500000
         33.75300000
         16.15700000
          7.96880000
          3.95210000
          1.94540000
          0.92929000
          0.44085000
          0.20340000
          0.09122600
   2.26320e-6   0.00000000   0.00000000   0.00000000   0.00000000   0.00000000   0.00000000   0.00000000
   1.75410e-5   0.00000000   0.00000000   0.00000000   0.00000000   0.00000000   0.00000000   0.00000000
   9.11680e-5   0.00000000   0.00000000   0.00000000   0.00000000   0.00000000   0.00000000   0.00000000
   0.00038740  -3.21300e-6   0.00000000   0.00000000   0.00000000   0.00000000   0.00000000   0.00000000
   0.00138700   1.37030e-5   0.00000000   0.00000000   0.00000000   0.00000000   0.00000000   0.00000000
   0.00455030  -1.48620e-5   0.00000000   0.00000000   0.00000000   0.00000000   0.00000000   0.00000000
   0.01300900   0.00048102   0.00000000   0.00000000   0.00000000   0.00000000   0.00000000   0.00000000
   0.03469600   0.00153840   0.00000000   0.00000000   0.00000000   0.00000000   0.00000000   0.00000000
   0.07480400   0.01355500   0.00000000   0.00000000   0.00000000   0.00000000   0.00000000   0.00000000
   0.13457000   0.04731100   0.00000000   0.00000000   0.00000000   0.00000000   0.00000000   0.00000000
   0.11672000   0.20160000   0.00000000   0.00000000   0.00000000   0.00000000   0.00000000   0.00000000
   0.00000000   0.40713000   0.00000000   0.00000000   0.00000000   0.00000000   0.00000000   0.00000000
   0.00000000   0.00000000   1.00000000   0.00000000   0.00000000   0.00000000   0.00000000   0.00000000
   0.00000000   0.00000000   0.00000000   1.00000000   0.00000000   0.00000000   0.00000000   0.00000000
   0.00000000   0.00000000   0.00000000   0.00000000   1.00000000   0.00000000   0.00000000   0.00000000
   0.00000000   0.00000000   0.00000000   0.00000000   0.00000000   1.00000000   0.00000000   0.00000000
   0.00000000   0.00000000   0.00000000   0.00000000   0.00000000   0.00000000   1.00000000   0.00000000
   0.00000000   0.00000000   0.00000000   0.00000000   0.00000000   0.00000000   0.00000000   1.00000000
* p-type functions
   11    7
        566.23000000
        134.10000000
         43.01300000
         15.61200000
          6.64270000
          2.97480000
          1.38850000
          0.65012000
          0.30028000
          0.13620000
          0.05784500
   0.00092433   0.00000000   0.00000000   0.00000000   0.00000000   0.00000000   0.00000000
   0.00808980   0.00000000   0.00000000   0.00000000   0.00000000   0.00000000   0.00000000
   0.04546300   0.00000000   0.00000000   0.00000000   0.00000000   0.00000000   0.00000000
   0.19622000   0.00000000   0.00000000   0.00000000   0.00000000   0.00000000   0.00000000
   0.51754000   0.00000000   0.00000000   0.00000000   0.00000000   0.00000000   0.00000000
   0.00000000   1.00000000   0.00000000   0.00000000   0.00000000   0.00000000   0.00000000
   0.00000000   0.00000000   1.00000000   0.00000000   0.00000000   0.00000000   0.00000000
   0.00000000   0.00000000   0.00000000   1.00000000   0.00000000   0.00000000   0.00000000
   0.00000000   0.00000000   0.00000000   0.00000000   1.00000000   0.00000000   0.00000000
   0.00000000   0.00000000   0.00000000   0.00000000   0.00000000   1.00000000   0.00000000
   0.00000000   0.00000000   0.00000000   0.00000000   0.00000000   0.00000000   1.00000000
* d-type functions
    6    6
         12.80000000
          4.40000000
          1.75000000
          0.80000000
          0.37000000
          0.15000000
   1.00000000   0.00000000   0.00000000   0.00000000   0.00000000   0.00000000
   0.00000000   1.00000000   0.00000000   0.00000000   0.00000000   0.00000000
   0.00000000   0.00000000   1.00000000   0.00000000   0.00000000   0.00000000
   0.00000000   0.00000000   0.00000000   1.00000000   0.00000000   0.00000000
   0.00000000   0.00000000   0.00000000   0.00000000   1.00000000   0.00000000
   0.00000000   0.00000000   0.00000000   0.00000000   0.00000000   1.00000000
* f-type functions
    3    3
          2.30000000
          1.00000000
          0.45000000
   1.00000000   0.00000000   0.00000000
   0.00000000   1.00000000   0.00000000
   0.00000000   0.00000000   1.00000000
* g-type functions
    2    2
          2.55000000
          1.10000000
   1.00000000   0.00000000
   0.00000000   1.00000000
* h-type functions
    1    1
          1.95000000
   1.00000000

/O.pc-4.Jensen.18s11p6d3f2g1h.8s7p6d3f2g1h.
F. Jensen. J. Chem. Phys. 116 (2002) 7372-7379. doi:10.1063/1.1465405
OXYGEN (18s,11p,6d,3f,2g,1h) -> [8s,7p,6d,3f,2g,1h]
     8.0   5
* s-type functions
   18    8
    1259700.00000000
     190110.00000000
      43449.00000000
      12342.00000000
       4035.00000000
       1459.70000000
        570.66000000
        237.50000000
        104.11000000
         47.58100000
         22.54600000
         11.09300000
          5.54090000
          2.77940000
          1.28370000
          0.59649000
          0.27057000
          0.12028000
   2.06840e-6   0.00000000   0.00000000   0.00000000   0.00000000   0.00000000   0.00000000   0.00000000
   0.00001596   0.00000000   0.00000000   0.00000000   0.00000000   0.00000000   0.00000000   0.00000000
   8.33280e-5   0.00000000   0.00000000   0.00000000   0.00000000   0.00000000   0.00000000   0.00000000
   0.00035212  -8.80840e-7   0.00000000   0.00000000   0.00000000   0.00000000   0.00000000   0.00000000
   0.00127090   7.49180e-6   0.00000000   0.00000000   0.00000000   0.00000000   0.00000000   0.00000000
   0.00413240   1.89250e-5   0.00000000   0.00000000   0.00000000   0.00000000   0.00000000   0.00000000
   0.01197000   0.00035166   0.00000000   0.00000000   0.00000000   0.00000000   0.00000000   0.00000000
   0.03156100   0.00170470   0.00000000   0.00000000   0.00000000   0.00000000   0.00000000   0.00000000
   0.06996000   0.01141200   0.00000000   0.00000000   0.00000000   0.00000000   0.00000000   0.00000000
   0.12702000   0.04602500   0.00000000   0.00000000   0.00000000   0.00000000   0.00000000   0.00000000
   0.11899000   0.19140000   0.00000000   0.00000000   0.00000000   0.00000000   0.00000000   0.00000000
   0.00000000   0.40260000   0.00000000   0.00000000   0.00000000   0.00000000   0.00000000   0.00000000
   0.00000000   0.00000000   1.00000000   0.00000000   0.00000000   0.00000000   0.00000000   0.00000000
   0.00000000   0.00000000   0.00000000   1.00000000   0.00000000   0.00000000   0.00000000   0.00000000
   0.00000000   0.00000000   0.00000000   0.00000000   1.00000000   0.00000000   0.00000000   0.00000000
   0.00000000   0.00000000   0.00000000   0.00000000   0.00000000   1.00000000   0.00000000   0.00000000
   0.00000000   0.00000000   0.00000000   0.00000000   0.00000000   0.00000000   1.00000000   0.00000000
   0.00000000   0.00000000   0.00000000   0.00000000   0.00000000   0.00000000   0.00000000   1.00000000
* p-type functions
   11    7
        708.61000000
        167.86000000
         53.96700000
         19.80700000
          8.38320000
          3.74470000
          1.73220000
          0.79977000
          0.36323000
          0.15963000
          0.06566400
   0.00104560   0.00000000   0.00000000   0.00000000   0.00000000   0.00000000   0.00000000
   0.00912920   0.00000000   0.00000000   0.00000000   0.00000000   0.00000000   0.00000000
   0.05097700   0.00000000   0.00000000   0.00000000   0.00000000   0.00000000   0.00000000
   0.21599000   0.00000000   0.00000000   0.00000000   0.00000000   0.00000000   0.00000000
   0.58777000   0.00000000   0.00000000   0.00000000   0.00000000   0.00000000   0.00000000
   0.00000000   1.00000000   0.00000000   0.00000000   0.00000000   0.00000000   0.00000000
   0.00000000   0.00000000   1.00000000   0.00000000   0.00000000   0.00000000   0.00000000
   0.00000000   0.00000000   0.00000000   1.00000000   0.00000000   0.00000000   0.00000000
   0.00000000   0.00000000   0.00000000   0.00000000   1.00000000   0.00000000   0.00000000
   0.00000000   0.00000000   0.00000000   0.00000000   0.00000000   1.00000000   0.00000000
   0.00000000   0.00000000   0.00000000   0.00000000   0.00000000   0.00000000   1.00000000
* d-type functions
    6    6
         18.20000000
          6.00000000
          2.40000000
          1.10000000
          0.50000000
          0.20000000
   1.00000000   0.00000000   0.00000000   0.00000000   0.00000000   0.00000000
   0.00000000   1.00000000   0.00000000   0.00000000   0.00000000   0.00000000
   0.00000000   0.00000000   1.00000000   0.00000000   0.00000000   0.00000000
   0.00000000   0.00000000   0.00000000   1.00000000   0.00000000   0.00000000
   0.00000000   0.00000000   0.00000000   0.00000000   1.00000000   0.00000000
   0.00000000   0.00000000   0.00000000   0.00000000   0.00000000   1.00000000
* f-type functions
    3    3
          2.60000000
          1.15000000
          0.50000000
   1.00000000   0.00000000   0.00000000
   0.00000000   1.00000000   0.00000000
   0.00000000   0.00000000   1.00000000
* g-type functions
    2    2
          3.05000000
          1.30000000
   1.00000000   0.00000000
   0.00000000   1.00000000
* h-type functions
    1    1
          2.05000000
   1.00000000

/F.pc-4.Jensen.18s11p6d3f2g1h.8s7p6d3f2g1h.
F. Jensen. J. Chem. Phys. 116 (2002) 7372-7379. doi:10.1063/1.1465405
FLUORINE (18s,11p,6d,3f,2g,1h) -> [8s,7p,6d,3f,2g,1h]
     9.0   5
* s-type functions
   18    8
    1856000.00000000
     280070.00000000
      64078.00000000
      18216.00000000
       5957.80000000
       2155.00000000
        841.96000000
        349.82000000
        152.79000000
         69.36700000
         32.57400000
         15.88900000
          7.86510000
          3.91990000
          1.78610000
          0.82065000
          0.36937000
          0.16198000
   1.71720e-6   0.00000000   0.00000000   0.00000000   0.00000000   0.00000000   0.00000000   0.00000000
   1.32440e-5   0.00000000   0.00000000   0.00000000   0.00000000   0.00000000   0.00000000   0.00000000
   6.90150e-5   0.00000000   0.00000000   0.00000000   0.00000000   0.00000000   0.00000000   0.00000000
   0.00029162  -8.09130e-7   0.00000000   0.00000000   0.00000000   0.00000000   0.00000000   0.00000000
   0.00105220   5.84830e-6   0.00000000   0.00000000   0.00000000   0.00000000   0.00000000   0.00000000
   0.00343010   1.11810e-5   0.00000000   0.00000000   0.00000000   0.00000000   0.00000000   0.00000000
   0.00997250   0.00026452   0.00000000   0.00000000   0.00000000   0.00000000   0.00000000   0.00000000
   0.02662500   0.00124470   0.00000000   0.00000000   0.00000000   0.00000000   0.00000000   0.00000000
   0.06039700   0.00880460   0.00000000   0.00000000   0.00000000   0.00000000   0.00000000   0.00000000
   0.11468000   0.03666600   0.00000000   0.00000000   0.00000000   0.00000000   0.00000000   0.00000000
   0.11487000   0.16212000   0.00000000   0.00000000   0.00000000   0.00000000   0.00000000   0.00000000
   0.00000000   0.37403000   0.00000000   0.00000000   0.00000000   0.00000000   0.00000000   0.00000000
   0.00000000   0.00000000   1.00000000   0.00000000   0.00000000   0.00000000   0.00000000   0.00000000
   0.00000000   0.00000000   0.00000000   1.00000000   0.00000000   0.00000000   0.00000000   0.00000000
   0.00000000   0.00000000   0.00000000   0.00000000   1.00000000   0.00000000   0.00000000   0.00000000
   0.00000000   0.00000000   0.00000000   0.00000000   0.00000000   1.00000000   0.00000000   0.00000000
   0.00000000   0.00000000   0.00000000   0.00000000   0.00000000   0.00000000   1.00000000   0.00000000
   0.00000000   0.00000000   0.00000000   0.00000000   0.00000000   0.00000000   0.00000000   1.00000000
* p-type functions
   11    7
        917.89000000
        217.41000000
         69.93900000
         25.83100000
         10.96900000
          4.92150000
          2.28390000
          1.05790000
          0.48135000
          0.20902000
          0.08555600
   0.00104500   0.00000000   0.00000000   0.00000000   0.00000000   0.00000000   0.00000000
   0.00914290   0.00000000   0.00000000   0.00000000   0.00000000   0.00000000   0.00000000
   0.05122700   0.00000000   0.00000000   0.00000000   0.00000000   0.00000000   0.00000000
   0.21558000   0.00000000   0.00000000   0.00000000   0.00000000   0.00000000   0.00000000
   0.59660000   0.00000000   0.00000000   0.00000000   0.00000000   0.00000000   0.00000000
   0.00000000   1.00000000   0.00000000   0.00000000   0.00000000   0.00000000   0.00000000
   0.00000000   0.00000000   1.00000000   0.00000000   0.00000000   0.00000000   0.00000000
   0.00000000   0.00000000   0.00000000   1.00000000   0.00000000   0.00000000   0.00000000
   0.00000000   0.00000000   0.00000000   0.00000000   1.00000000   0.00000000   0.00000000
   0.00000000   0.00000000   0.00000000   0.00000000   0.00000000   1.00000000   0.00000000
   0.00000000   0.00000000   0.00000000   0.00000000   0.00000000   0.00000000   1.00000000
* d-type functions
    6    6
         25.50000000
          8.00000000
          3.20000000
          1.45000000
          0.65000000
          0.25000000
   1.00000000   0.00000000   0.00000000   0.00000000   0.00000000   0.00000000
   0.00000000   1.00000000   0.00000000   0.00000000   0.00000000   0.00000000
   0.00000000   0.00000000   1.00000000   0.00000000   0.00000000   0.00000000
   0.00000000   0.00000000   0.00000000   1.00000000   0.00000000   0.00000000
   0.00000000   0.00000000   0.00000000   0.00000000   1.00000000   0.00000000
   0.00000000   0.00000000   0.00000000   0.00000000   0.00000000   1.00000000
* f-type functions
    3    3
          3.10000000
          1.35000000
          0.60000000
   1.00000000   0.00000000   0.00000000
   0.00000000   1.00000000   0.00000000
   0.00000000   0.00000000   1.00000000
* g-type functions
    2    2
          3.60000000
          1.55000000
   1.00000000   0.00000000
   0.00000000   1.00000000
* h-type functions
    1    1
          2.15000000
   1.00000000

/Ne.pc-4.Jensen.18s11p6d3f2g1h.8s7p6d3f2g1h.
F. Jensen. J. Phys. Chem. A 111 (2007) 11198-11204. doi:10.1021/jp068677h
NEON (18s,11p,6d,3f,2g,1h) -> [8s,7p,6d,3f,2g,1h]
    10.0   5
* s-type functions
   18    8
    2522600.00000000
     377060.00000000
      85713.00000000
      24261.00000000
       7911.70000000
       2855.50000000
       1113.60000000
        461.89000000
        201.35000000
         91.19800000
         42.68000000
         20.74200000
         10.24900000
          5.10130000
          2.30310000
          1.05310000
          0.47222000
          0.20466000
   7.66530e-6   0.00000000   0.00000000   0.00000000   0.00000000   0.00000000   0.00000000   0.00000000
   5.98260e-5   0.00000000   0.00000000   0.00000000   0.00000000   0.00000000   0.00000000   0.00000000
   0.00031441   0.00000000   0.00000000   0.00000000   0.00000000   0.00000000   0.00000000   0.00000000
   0.00133260  -2.03210e-7   0.00000000   0.00000000   0.00000000   0.00000000   0.00000000   0.00000000
   0.00483320   2.12160e-6   0.00000000   0.00000000   0.00000000   0.00000000   0.00000000   0.00000000
   0.01576300   7.58350e-6   0.00000000   0.00000000   0.00000000   0.00000000   0.00000000   0.00000000
   0.04612300   0.00011055   0.00000000   0.00000000   0.00000000   0.00000000   0.00000000   0.00000000
   0.12339000   0.00058283   0.00000000   0.00000000   0.00000000   0.00000000   0.00000000   0.00000000
   0.28428000   0.00387530   0.00000000   0.00000000   0.00000000   0.00000000   0.00000000   0.00000000
   0.54569000   0.01708600   0.00000000   0.00000000   0.00000000   0.00000000   0.00000000   0.00000000
   0.58141000   0.07497800   0.00000000   0.00000000   0.00000000   0.00000000   0.00000000   0.00000000
   0.00000000   0.18391000   0.00000000   0.00000000   0.00000000   0.00000000   0.00000000   0.00000000
   0.00000000   0.00000000   1.00000000   0.00000000   0.00000000   0.00000000   0.00000000   0.00000000
   0.00000000   0.00000000   0.00000000   1.00000000   0.00000000   0.00000000   0.00000000   0.00000000
   0.00000000   0.00000000   0.00000000   0.00000000   1.00000000   0.00000000   0.00000000   0.00000000
   0.00000000   0.00000000   0.00000000   0.00000000   0.00000000   1.00000000   0.00000000   0.00000000
   0.00000000   0.00000000   0.00000000   0.00000000   0.00000000   0.00000000   1.00000000   0.00000000
   0.00000000   0.00000000   0.00000000   0.00000000   0.00000000   0.00000000   0.00000000   1.00000000
* p-type functions
   11    7
       1169.90000000
        277.11000000
         89.26400000
         33.10000000
         14.03100000
          6.29850000
          2.92340000
          1.35370000
          0.61362000
          0.26362000
          0.10755000
   0.00051064   0.00000000   0.00000000   0.00000000   0.00000000   0.00000000   0.00000000
   0.00447380   0.00000000   0.00000000   0.00000000   0.00000000   0.00000000   0.00000000
   0.02511000   0.00000000   0.00000000   0.00000000   0.00000000   0.00000000   0.00000000
   0.10593000   0.00000000   0.00000000   0.00000000   0.00000000   0.00000000   0.00000000
   0.29958000   0.00000000   0.00000000   0.00000000   0.00000000   0.00000000   0.00000000
   0.00000000   1.00000000   0.00000000   0.00000000   0.00000000   0.00000000   0.00000000
   0.00000000   0.00000000   1.00000000   0.00000000   0.00000000   0.00000000   0.00000000
   0.00000000   0.00000000   0.00000000   1.00000000   0.00000000   0.00000000   0.00000000
   0.00000000   0.00000000   0.00000000   0.00000000   1.00000000   0.00000000   0.00000000
   0.00000000   0.00000000   0.00000000   0.00000000   0.00000000   1.00000000   0.00000000
   0.00000000   0.00000000   0.00000000   0.00000000   0.00000000   0.00000000   1.00000000
* d-type functions
    6    6
         32.00000000
         10.10000000
          4.00000000
          1.85000000
          0.80000000
          0.30000000
   1.00000000   0.00000000   0.00000000   0.00000000   0.00000000   0.00000000
   0.00000000   1.00000000   0.00000000   0.00000000   0.00000000   0.00000000
   0.00000000   0.00000000   1.00000000   0.00000000   0.00000000   0.00000000
   0.00000000   0.00000000   0.00000000   1.00000000   0.00000000   0.00000000
   0.00000000   0.00000000   0.00000000   0.00000000   1.00000000   0.00000000
   0.00000000   0.00000000   0.00000000   0.00000000   0.00000000   1.00000000
* f-type functions
    3    3
          3.60000000
          1.55000000
          0.70000000
   1.00000000   0.00000000   0.00000000
   0.00000000   1.00000000   0.00000000
   0.00000000   0.00000000   1.00000000
* g-type functions
    2    2
          4.20000000
          1.80000000
   1.00000000   0.00000000
   0.00000000   1.00000000
* h-type functions
    1    1
          2.25000000
   1.00000000

/Na.pc-4.Jensen.21s15p3d2f1g.7s5p3d2f1g.
F. Jensen. J. Phys. Chem. A 111 (2007) 11198-11204. doi:10.1021/jp068677h
SODIUM (21s,15p,3d,2f,1g) -> [7s,5p,3d,2f,1g]
    11.0   4
* s-type functions
   21    7
    1918700.00000000
     287270.00000000
      65382.00000000
      18523.00000000
       6045.40000000
       2184.20000000
        853.11000000
        354.69000000
        155.33000000
         71.23400000
         33.83500000
         16.34900000
          8.00820000
          3.67130000
          1.71180000
          0.79147000
          0.35479000
          0.09066400
          0.04431300
          0.02194800
          0.01082100
   2.74290e-6   0.00000000   0.00000000   0.00000000   0.00000000   0.00000000   0.00000000
   2.13320e-5   0.00000000   0.00000000   0.00000000   0.00000000   0.00000000   0.00000000
   0.00011221   0.00000000   0.00000000   0.00000000   0.00000000   0.00000000   0.00000000
   0.00047369   0.00000000   0.00000000   0.00000000   0.00000000   0.00000000   0.00000000
   0.00172350   0.00000000  -1.44460e-6   0.00000000   0.00000000   0.00000000   0.00000000
   0.00559140  -1.79020e-5  -1.30570e-5   0.00000000   0.00000000   0.00000000   0.00000000
   0.01646100  -6.49780e-5  -9.74170e-5   0.00000000   0.00000000   0.00000000   0.00000000
   0.04377600  -0.00060909  -0.00063787   0.00000000   0.00000000   0.00000000   0.00000000
   0.10266000  -0.00260940  -0.00333940   0.00000000   0.00000000   0.00000000   0.00000000
   0.20074000  -0.01329500  -0.01514500   0.00000000   0.00000000   0.00000000   0.00000000
   0.30952000  -0.03986700  -0.04907900   0.00000000   0.00000000   0.00000000   0.00000000
   0.30826000  -0.09610800  -0.10865000   0.00000000   0.00000000   0.00000000   0.00000000
   0.14855000  -0.07047900  -0.08852700   0.00000000   0.00000000   0.00000000   0.00000000
   0.01711300   0.24565000   0.29366000   0.00000000   0.00000000   0.00000000   0.00000000
  -0.00155410   0.55362000   0.47915000   0.00000000   0.00000000   0.00000000   0.00000000
   0.00000000   0.45869000   0.15680000   0.00000000   0.00000000   0.00000000   0.00000000
   0.00000000   0.00000000  -0.57853000   0.00000000   0.00000000   0.00000000   0.00000000
   0.00000000   0.00000000   0.00000000   1.00000000   0.00000000   0.00000000   0.00000000
   0.00000000   0.00000000   0.00000000   0.00000000   1.00000000   0.00000000   0.00000000
   0.00000000   0.00000000   0.00000000   0.00000000   0.00000000   1.00000000   0.00000000
   0.00000000   0.00000000   0.00000000   0.00000000   0.00000000   0.00000000   1.00000000
* p-type functions
   15    5
       3044.20000000
        720.02000000
        234.42000000
         89.66600000
         36.69500000
         16.25600000
          7.65930000
          3.71250000
          1.79920000
          0.86288000
          0.40104000
          0.17759000
          0.08070000
          0.03670000
          0.01670000
   2.93550e-5   0.00000000   0.00000000   0.00000000   0.00000000
   0.00026100   0.00000000   0.00000000   0.00000000   0.00000000
   0.00148190   0.00000000   0.00000000   0.00000000   0.00000000
   0.00648150   0.00000000   0.00000000   0.00000000   0.00000000
   0.02480300   0.00000000   0.00000000   0.00000000   0.00000000
   0.06595400   0.00000000   0.00000000   0.00000000   0.00000000
   0.14794000   0.00000000   0.00000000   0.00000000   0.00000000
   0.24400000   0.00000000   0.00000000   0.00000000   0.00000000
   0.30244000   0.00000000   0.00000000   0.00000000   0.00000000
   0.27557000   0.00000000   0.00000000   0.00000000   0.00000000
   0.16219000   0.00000000   0.00000000   0.00000000   0.00000000
   0.00000000   1.00000000   0.00000000   0.00000000   0.00000000
   0.00000000   0.00000000   1.00000000   0.00000000   0.00000000
   0.00000000   0.00000000   0.00000000   1.00000000   0.00000000
   0.00000000   0.00000000   0.00000000   0.00000000   1.00000000
* d-type functions
    3    3
          2.35000000
          0.56000000
          0.14000000
   1.00000000   0.00000000   0.00000000
   0.00000000   1.00000000   0.00000000
   0.00000000   0.00000000   1.00000000
* f-type functions
    2    2
          1.08000000
          0.24000000
   1.00000000   0.00000000
   0.00000000   1.00000000
* g-type functions
    1    1
          0.30000000
   1.00000000

/Mg.pc-4.Jensen.21s15p3d2f1g.7s5p3d2f1g.
F. Jensen. J. Phys. Chem. A 111 (2007) 11198-11204. doi:10.1021/jp068677h
MAGNESIUM (21s,15p,3d,2f,1g) -> [7s,5p,3d,2f,1g]
    12.0   4
* s-type functions
   21    7
    3199100.00000000
     479000.00000000
     109010.00000000
      30878.00000000
      10075.00000000
       3637.90000000
       1419.50000000
        589.35000000
        257.53000000
        117.17000000
         54.76200000
         26.28800000
         12.86000000
          6.26040000
          2.85140000
          1.30580000
          0.58331000
          0.16849000
          0.08564600
          0.04507700
          0.02193400
   9.01890e-7   0.00000000   0.00000000   0.00000000   0.00000000   0.00000000   0.00000000
   7.01150e-6   0.00000000   0.00000000   0.00000000   0.00000000   0.00000000   0.00000000
   3.68920e-5   0.00000000   0.00000000   0.00000000   0.00000000   0.00000000   0.00000000
   0.00015584   0.00000000   0.00000000   0.00000000   0.00000000   0.00000000   0.00000000
   0.00056784   0.00000000   0.00000000   0.00000000   0.00000000   0.00000000   0.00000000
   0.00184930  -3.36150e-6   0.00000000   0.00000000   0.00000000   0.00000000   0.00000000
   0.00548860  -1.11860e-5   1.38720e-6   0.00000000   0.00000000   0.00000000   0.00000000
   0.01487100  -0.00011126   1.09740e-5   0.00000000   0.00000000   0.00000000   0.00000000
   0.03631500  -0.00050000   5.63830e-5   0.00000000   0.00000000   0.00000000   0.00000000
   0.07751300  -0.00266410   0.00026010   0.00000000   0.00000000   0.00000000   0.00000000
   0.13593000  -0.00983480   0.00092696   0.00000000   0.00000000   0.00000000   0.00000000
   0.16490000  -0.02596400   0.00140020   0.00000000   0.00000000   0.00000000   0.00000000
   0.11240000  -0.03988900   0.00021032   0.00000000   0.00000000   0.00000000   0.00000000
   0.02650100   0.02928600  -0.00139360   0.00000000   0.00000000   0.00000000   0.00000000
   6.82220e-5   0.16700000   0.06338500   0.00000000   0.00000000   0.00000000   0.00000000
   0.00000000   0.15689000   0.35178000   0.00000000   0.00000000   0.00000000   0.00000000
   0.00000000   0.00000000   0.45980000   0.00000000   0.00000000   0.00000000   0.00000000
   0.00000000   0.00000000   0.00000000   1.00000000   0.00000000   0.00000000   0.00000000
   0.00000000   0.00000000   0.00000000   0.00000000   1.00000000   0.00000000   0.00000000
   0.00000000   0.00000000   0.00000000   0.00000000   0.00000000   1.00000000   0.00000000
   0.00000000   0.00000000   0.00000000   0.00000000   0.00000000   0.00000000   1.00000000
* p-type functions
   15    5
       4157.80000000
        984.53000000
        320.09000000
        121.73000000
         49.89200000
         22.54200000
         10.74900000
          5.28990000
          2.59960000
          1.25180000
          0.59246000
          0.26941000
          0.12250000
          0.05570000
          0.02530000
   1.23420e-5   0.00000000   0.00000000   0.00000000   0.00000000
   0.00010978   0.00000000   0.00000000   0.00000000   0.00000000
   0.00063086   0.00000000   0.00000000   0.00000000   0.00000000
   0.00283310   0.00000000   0.00000000   0.00000000   0.00000000
   0.01077300   0.00000000   0.00000000   0.00000000   0.00000000
   0.02877200   0.00000000   0.00000000   0.00000000   0.00000000
   0.06653700   0.00000000   0.00000000   0.00000000   0.00000000
   0.11557000   0.00000000   0.00000000   0.00000000   0.00000000
   0.15417000   0.00000000   0.00000000   0.00000000   0.00000000
   0.14665000   0.00000000   0.00000000   0.00000000   0.00000000
   0.08190400   0.00000000   0.00000000   0.00000000   0.00000000
   0.00000000   1.00000000   0.00000000   0.00000000   0.00000000
   0.00000000   0.00000000   1.00000000   0.00000000   0.00000000
   0.00000000   0.00000000   0.00000000   1.00000000   0.00000000
   0.00000000   0.00000000   0.00000000   0.00000000   1.00000000
* d-type functions
    3    3
          3.36000000
          0.80000000
          0.20000000
   1.00000000   0.00000000   0.00000000
   0.00000000   1.00000000   0.00000000
   0.00000000   0.00000000   1.00000000
* f-type functions
    2    2
          1.35000000
          0.30000000
   1.00000000   0.00000000
   0.00000000   1.00000000
* g-type functions
    1    1
          0.35000000
   1.00000000

/Al.pc-4.Jensen.21s16p6d3f2g1h.7s6p6d3f2g1h.
F. Jensen. J. Phys. Chem. A 111 (2007) 11198-11204. doi:10.1021/jp068677h
ALUMINIUM (21s,16p,6d,3f,2g,1h) -> [7s,6p,6d,3f,2g,1h]
    13.0   5
* s-type functions
   21    7
    3845200.00000000
     575260.00000000
     130860.00000000
      37063.00000000
      12094.00000000
       4366.80000000
       1703.60000000
        707.13000000
        308.97000000
        140.71000000
         65.91700000
         31.73000000
         15.58700000
          7.63820000
          3.54540000
          1.66790000
          0.76939000
          0.27917000
          0.14016000
          0.07033600
          0.03366000
   1.75380e-6   0.00000000   0.00000000   0.00000000   0.00000000   0.00000000   0.00000000
   1.36540e-5   0.00000000   0.00000000   0.00000000   0.00000000   0.00000000   0.00000000
   7.18690e-5   0.00000000   0.00000000   0.00000000   0.00000000   0.00000000   0.00000000
   0.00030355   0.00000000   0.00000000   0.00000000   0.00000000   0.00000000   0.00000000
   0.00110600   0.00000000  -1.09120e-6   0.00000000   0.00000000   0.00000000   0.00000000
   0.00360350  -1.13250e-5  -1.04990e-5   0.00000000   0.00000000   0.00000000   0.00000000
   0.01070200  -0.00006005  -0.00007868   0.00000000   0.00000000   0.00000000   0.00000000
   0.02903600  -0.00046344  -0.00052023   0.00000000   0.00000000   0.00000000   0.00000000
   0.07104500  -0.00237800  -0.00291520   0.00000000   0.00000000   0.00000000   0.00000000
   0.15195000  -0.01184200  -0.01384800   0.00000000   0.00000000   0.00000000   0.00000000
   0.26792000  -0.04567500  -0.05496800   0.00000000   0.00000000   0.00000000   0.00000000
   0.32914000  -0.11864000  -0.13850000   0.00000000   0.00000000   0.00000000   0.00000000
   0.22998000  -0.19088000  -0.22663000   0.00000000   0.00000000   0.00000000   0.00000000
   0.05743300   0.12421000   0.15454000   0.00000000   0.00000000   0.00000000   0.00000000
   0.00040260   0.72353000   0.75844000   0.00000000   0.00000000   0.00000000   0.00000000
   0.00000000   0.75665000   0.53134000   0.00000000   0.00000000   0.00000000   0.00000000
   0.00000000   0.00000000  -0.50362000   0.00000000   0.00000000   0.00000000   0.00000000
   0.00000000   0.00000000   0.00000000   1.00000000   0.00000000   0.00000000   0.00000000
   0.00000000   0.00000000   0.00000000   0.00000000   1.00000000   0.00000000   0.00000000
   0.00000000   0.00000000   0.00000000   0.00000000   0.00000000   1.00000000   0.00000000
   0.00000000   0.00000000   0.00000000   0.00000000   0.00000000   0.00000000   1.00000000
* p-type functions
   16    6
       5687.30000000
        436.38000000
       1345.20000000
        165.45000000
         68.61900000
         31.87500000
         15.43200000
          7.75700000
          3.92560000
          1.97640000
          0.99918000
          0.50630000
          0.25847000
          0.11566000
          0.05104800
          0.02120000
   1.99820e-5   0.00000000   0.00000000   0.00000000   0.00000000   0.00000000
   0.00103710   0.00000000   0.00000000   0.00000000   0.00000000   0.00000000
   0.00017728   1.00950e-5   0.00000000   0.00000000   0.00000000   0.00000000
   0.00470060   0.00022858   0.00000000   0.00000000   0.00000000   0.00000000
   0.01742700  -0.00026528   0.00000000   0.00000000   0.00000000   0.00000000
   0.04664300   0.00155100   0.00000000   0.00000000   0.00000000   0.00000000
   0.11224000  -0.00904470   0.00000000   0.00000000   0.00000000   0.00000000
   0.20457000  -0.00361670   0.00000000   0.00000000   0.00000000   0.00000000
   0.29828000  -0.07048600   0.00000000   0.00000000   0.00000000   0.00000000
   0.30142000  -0.01171600   0.00000000   0.00000000   0.00000000   0.00000000
   0.18905000   0.04407300   0.00000000   0.00000000   0.00000000   0.00000000
   0.00000000   0.55310000   0.00000000   0.00000000   0.00000000   0.00000000
   0.00000000   0.00000000   1.00000000   0.00000000   0.00000000   0.00000000
   0.00000000   0.00000000   0.00000000   1.00000000   0.00000000   0.00000000
   0.00000000   0.00000000   0.00000000   0.00000000   1.00000000   0.00000000
   0.00000000   0.00000000   0.00000000   0.00000000   0.00000000   1.00000000
* d-type functions
    6    6
         17.81000000
          5.09000000
          1.75000000
          0.63000000
          0.27000000
          0.11000000
   1.00000000   0.00000000   0.00000000   0.00000000   0.00000000   0.00000000
   0.00000000   1.00000000   0.00000000   0.00000000   0.00000000   0.00000000
   0.00000000   0.00000000   1.00000000   0.00000000   0.00000000   0.00000000
   0.00000000   0.00000000   0.00000000   1.00000000   0.00000000   0.00000000
   0.00000000   0.00000000   0.00000000   0.00000000   1.00000000   0.00000000
   0.00000000   0.00000000   0.00000000   0.00000000   0.00000000   1.00000000
* f-type functions
    3    3
          2.17000000
          0.51000000
          0.21000000
   1.00000000   0.00000000   0.00000000
   0.00000000   1.00000000   0.00000000
   0.00000000   0.00000000   1.00000000
* g-type functions
    2    2
          1.14000000
          0.38000000
   1.00000000   0.00000000
   0.00000000   1.00000000
* h-type functions
    1    1
          0.69000000
   1.00000000

/Si.pc-4.Jensen.21s16p6d3f2g1h.7s6p6d3f2g1h.
F. Jensen, T. Helgaker. J. Chem. Phys. 121 (2004) 3463-3470. doi:10.1063/1.1756866
SILICON (21s,16p,6d,3f,2g,1h) -> [7s,6p,6d,3f,2g,1h]
    14.0   5
* s-type functions
   21    7
    4615800.00000000
     719010.00000000
     169990.00000000
      49400.00000000
      16385.00000000
       5985.40000000
       2354.10000000
        981.40000000
        428.90000000
        194.54000000
         90.77700000
         43.71500000
         21.49100000
         10.66900000
          4.88820000
          2.33610000
          1.09670000
          0.42312000
          0.24276000
          0.11703000
          0.05286100
   1.65860e-6   0.00000000   0.00000000   0.00000000   0.00000000   0.00000000   0.00000000
   1.21340e-5   0.00000000   0.00000000   0.00000000   0.00000000   0.00000000   0.00000000
   6.09690e-5   0.00000000   0.00000000   0.00000000   0.00000000   0.00000000   0.00000000
   0.00025124   0.00000000   0.00000000   0.00000000   0.00000000   0.00000000   0.00000000
   0.00090088  -9.45940e-7   0.00000000   0.00000000   0.00000000   0.00000000   0.00000000
   0.00290390  -1.93880e-6  -3.81010e-6   0.00000000   0.00000000   0.00000000   0.00000000
   0.00858520  -4.21750e-5  -2.89990e-5   0.00000000   0.00000000   0.00000000   0.00000000
   0.02342100  -0.00020469  -0.00018868   0.00000000   0.00000000   0.00000000   0.00000000
   0.05842200  -0.00142610  -0.00109670   0.00000000   0.00000000   0.00000000   0.00000000
   0.12977000  -0.00637950  -0.00533750   0.00000000   0.00000000   0.00000000   0.00000000
   0.24037000  -0.02866400  -0.02274900   0.00000000   0.00000000   0.00000000   0.00000000
   0.32480000  -0.07569500  -0.06293600   0.00000000   0.00000000   0.00000000   0.00000000
   0.26684000  -0.15473000  -0.12525000   0.00000000   0.00000000   0.00000000   0.00000000
   0.09132400   0.01591300   0.00521670   0.00000000   0.00000000   0.00000000   0.00000000
   0.00534240   0.46344000   0.43080000   0.00000000   0.00000000   0.00000000   0.00000000
   0.00000000   0.60218000   0.71833000   0.00000000   0.00000000   0.00000000   0.00000000
   0.00000000   0.00000000   0.38360000   0.00000000   0.00000000   0.00000000   0.00000000
   0.00000000   0.00000000   0.00000000   1.00000000   0.00000000   0.00000000   0.00000000
   0.00000000   0.00000000   0.00000000   0.00000000   1.00000000   0.00000000   0.00000000
   0.00000000   0.00000000   0.00000000   0.00000000   0.00000000   1.00000000   0.00000000
   0.00000000   0.00000000   0.00000000   0.00000000   0.00000000   0.00000000   1.00000000
* p-type functions
   16    6
       6453.30000000
       1533.90000000
        498.38000000
        188.98000000
         77.88700000
         35.51400000
         17.01600000
          8.49770000
          4.35440000
          2.25750000
          1.15970000
          0.59343000
          0.29012000
          0.13825000
          0.06459400
          0.02835400
   2.16530e-5   0.00000000   0.00000000   0.00000000   0.00000000   0.00000000
   0.00019162   9.58440e-7   0.00000000   0.00000000   0.00000000   0.00000000
   0.00111430  -1.74750e-7   0.00000000   0.00000000   0.00000000   0.00000000
   0.00508300   1.99210e-5   0.00000000   0.00000000   0.00000000   0.00000000
   0.01926900  -0.00003897   0.00000000   0.00000000   0.00000000   0.00000000
   0.05309100   6.33270e-5   0.00000000   0.00000000   0.00000000   0.00000000
   0.12639000  -0.00140570   0.00000000   0.00000000   0.00000000   0.00000000
   0.22312000  -0.00120800   0.00000000   0.00000000   0.00000000   0.00000000
   0.29854000  -0.01139000   0.00000000   0.00000000   0.00000000   0.00000000
   0.28651000   0.00460790   0.00000000   0.00000000   0.00000000   0.00000000
   0.17168000  -0.00057688   0.00000000   0.00000000   0.00000000   0.00000000
   0.00000000   0.13174000   0.00000000   0.00000000   0.00000000   0.00000000
   0.00000000   0.00000000   1.00000000   0.00000000   0.00000000   0.00000000
   0.00000000   0.00000000   0.00000000   1.00000000   0.00000000   0.00000000
   0.00000000   0.00000000   0.00000000   0.00000000   1.00000000   0.00000000
   0.00000000   0.00000000   0.00000000   0.00000000   0.00000000   1.00000000
* d-type functions
    6    6
         19.52000000
          5.58000000
          1.92000000
          0.69000000
          0.29900000
          0.12500000
   1.00000000   0.00000000   0.00000000   0.00000000   0.00000000   0.00000000
   0.00000000   1.00000000   0.00000000   0.00000000   0.00000000   0.00000000
   0.00000000   0.00000000   1.00000000   0.00000000   0.00000000   0.00000000
   0.00000000   0.00000000   0.00000000   1.00000000   0.00000000   0.00000000
   0.00000000   0.00000000   0.00000000   0.00000000   1.00000000   0.00000000
   0.00000000   0.00000000   0.00000000   0.00000000   0.00000000   1.00000000
* f-type functions
    3    3
          2.64000000
          0.62000000
          0.26000000
   1.00000000   0.00000000   0.00000000
   0.00000000   1.00000000   0.00000000
   0.00000000   0.00000000   1.00000000
* g-type functions
    2    2
          1.35000000
          0.45000000
   1.00000000   0.00000000
   0.00000000   1.00000000
* h-type functions
    1    1
          0.78000000
   1.00000000

/P.pc-4.Jensen.21s16p6d3f2g1h.7s6p6d3f2g1h.
F. Jensen, T. Helgaker. J. Chem. Phys. 121 (2004) 3463-3470. doi:10.1063/1.1756866
PHOSPHORUS (21s,16p,6d,3f,2g,1h) -> [7s,6p,6d,3f,2g,1h]
    15.0   5
* s-type functions
   21    7
    5262500.00000000
     822130.00000000
     194250.00000000
      56424.00000000
      18716.00000000
       6839.30000000
       2693.10000000
       1126.50000000
        495.21000000
        226.38000000
        106.62000000
         51.90500000
         25.85100000
         13.02200000
          6.05680000
          2.95740000
          1.40780000
          0.57187000
          0.31078000
          0.14947000
          0.06831300
   1.67230e-6   0.00000000   0.00000000   0.00000000   0.00000000   0.00000000   0.00000000
   1.22070e-5   0.00000000   0.00000000   0.00000000   0.00000000   0.00000000   0.00000000
   0.00006144   0.00000000   0.00000000   0.00000000   0.00000000   0.00000000   0.00000000
   0.00025322   0.00000000   0.00000000   0.00000000   0.00000000   0.00000000   0.00000000
   0.00090752  -8.79610e-7   0.00000000   0.00000000   0.00000000   0.00000000   0.00000000
   0.00292300  -1.19970e-6  -4.85950e-6   0.00000000   0.00000000   0.00000000   0.00000000
   0.00861380  -3.67780e-5  -3.78590e-5   0.00000000   0.00000000   0.00000000   0.00000000
   0.02332900  -0.00016467  -0.00024017   0.00000000   0.00000000   0.00000000   0.00000000
   0.05764100  -0.00118610  -0.00138650   0.00000000   0.00000000   0.00000000   0.00000000
   0.12694000  -0.00509360  -0.00661190   0.00000000   0.00000000   0.00000000   0.00000000
   0.23408000  -0.02293900  -0.02784700   0.00000000   0.00000000   0.00000000   0.00000000
   0.31805000  -0.05950300  -0.07656600   0.00000000   0.00000000   0.00000000   0.00000000
   0.27002000  -0.12532000  -0.15527000   0.00000000   0.00000000   0.00000000   0.00000000
   0.10197000  -0.00340880  -0.01712400   0.00000000   0.00000000   0.00000000   0.00000000
   0.00808990   0.33461000   0.48842000   0.00000000   0.00000000   0.00000000   0.00000000
   0.00000000   0.50380000   0.90895000   0.00000000   0.00000000   0.00000000   0.00000000
   0.00000000   0.00000000   0.53649000   0.00000000   0.00000000   0.00000000   0.00000000
   0.00000000   0.00000000   0.00000000   1.00000000   0.00000000   0.00000000   0.00000000
   0.00000000   0.00000000   0.00000000   0.00000000   1.00000000   0.00000000   0.00000000
   0.00000000   0.00000000   0.00000000   0.00000000   0.00000000   1.00000000   0.00000000
   0.00000000   0.00000000   0.00000000   0.00000000   0.00000000   0.00000000   1.00000000
* p-type functions
   16    6
       7748.60000000
       1833.60000000
        595.55000000
        226.61000000
         94.19100000
         43.33200000
         20.90700000
         10.50200000
          5.42550000
          2.88180000
          1.52840000
          0.81081000
          0.39028000
          0.18645000
          0.08756700
          0.03867300
   0.00002087   0.00000000   0.00000000   0.00000000   0.00000000   0.00000000
   0.00018596   8.17170e-7   0.00000000   0.00000000   0.00000000   0.00000000
   0.00107990  -2.84830e-7   0.00000000   0.00000000   0.00000000   0.00000000
   0.00489460   1.59730e-5   0.00000000   0.00000000   0.00000000   0.00000000
   0.01832000  -4.73960e-5   0.00000000   0.00000000   0.00000000   0.00000000
   0.05066900   1.17440e-6   0.00000000   0.00000000   0.00000000   0.00000000
   0.12156000  -0.00158320   0.00000000   0.00000000   0.00000000   0.00000000
   0.21931000  -0.00181170   0.00000000   0.00000000   0.00000000   0.00000000
   0.29640000  -0.01346500   0.00000000   0.00000000   0.00000000   0.00000000
   0.28179000   0.00615030   0.00000000   0.00000000   0.00000000   0.00000000
   0.17853000  -0.00714440   0.00000000   0.00000000   0.00000000   0.00000000
   0.00000000   0.14315000   0.00000000   0.00000000   0.00000000   0.00000000
   0.00000000   0.00000000   1.00000000   0.00000000   0.00000000   0.00000000
   0.00000000   0.00000000   0.00000000   1.00000000   0.00000000   0.00000000
   0.00000000   0.00000000   0.00000000   0.00000000   1.00000000   0.00000000
   0.00000000   0.00000000   0.00000000   0.00000000   0.00000000   1.00000000
* d-type functions
    6    6
         21.23000000
          6.07000000
          2.09000000
          0.75000000
          0.32500000
          0.13500000
   1.00000000   0.00000000   0.00000000   0.00000000   0.00000000   0.00000000
   0.00000000   1.00000000   0.00000000   0.00000000   0.00000000   0.00000000
   0.00000000   0.00000000   1.00000000   0.00000000   0.00000000   0.00000000
   0.00000000   0.00000000   0.00000000   1.00000000   0.00000000   0.00000000
   0.00000000   0.00000000   0.00000000   0.00000000   1.00000000   0.00000000
   0.00000000   0.00000000   0.00000000   0.00000000   0.00000000   1.00000000
* f-type functions
    3    3
          3.12000000
          0.73000000
          0.30000000
   1.00000000   0.00000000   0.00000000
   0.00000000   1.00000000   0.00000000
   0.00000000   0.00000000   1.00000000
* g-type functions
    2    2
          1.55000000
          0.52000000
   1.00000000   0.00000000
   0.00000000   1.00000000
* h-type functions
    1    1
          0.87000000
   1.00000000

/S.pc-4.Jensen.21s16p6d3f2g1h.7s6p6d3f2g1h.
F. Jensen, T. Helgaker. J. Chem. Phys. 121 (2004) 3463-3470. doi:10.1063/1.1756866
SULFUR (21s,16p,6d,3f,2g,1h) -> [7s,6p,6d,3f,2g,1h]
    16.0   5
* s-type functions
   21    7
    6359200.00000000
     983890.00000000
     229770.00000000
      66276.00000000
      21884.00000000
       7969.60000000
       3129.90000000
       1305.20000000
        571.70000000
        260.58000000
        122.48000000
         59.51800000
         29.62700000
         14.94300000
          7.04790000
          3.50400000
          1.69970000
          0.73101000
          0.37948000
          0.18185000
          0.08396100
   1.55750e-6   0.00000000   0.00000000   0.00000000   0.00000000   0.00000000   0.00000000
   1.15630e-5   0.00000000   0.00000000   0.00000000   0.00000000   0.00000000   0.00000000
   5.90170e-5   0.00000000   0.00000000   0.00000000   0.00000000   0.00000000   0.00000000
   0.00024474   0.00000000   0.00000000   0.00000000   0.00000000   0.00000000   0.00000000
   0.00088159  -8.24570e-7   0.00000000   0.00000000   0.00000000   0.00000000   0.00000000
   0.00284940  -1.03270e-6  -2.81560e-6   0.00000000   0.00000000   0.00000000   0.00000000
   0.00842730  -3.41210e-5  -2.10790e-5   0.00000000   0.00000000   0.00000000   0.00000000
   0.02295100  -0.00015187  -0.00013709   0.00000000   0.00000000   0.00000000   0.00000000
   0.05703800  -0.00110930  -0.00078935   0.00000000   0.00000000   0.00000000   0.00000000
   0.12616000  -0.00479670  -0.00382300   0.00000000   0.00000000   0.00000000   0.00000000
   0.23373000  -0.02168200  -0.01607200   0.00000000   0.00000000   0.00000000   0.00000000
   0.31883000  -0.05690800  -0.04492200   0.00000000   0.00000000   0.00000000   0.00000000
   0.27098000  -0.11915000  -0.09013700   0.00000000   0.00000000   0.00000000   0.00000000
   0.10217000  -0.00271680  -0.01063100   0.00000000   0.00000000   0.00000000   0.00000000
   0.00813260   0.30365000   0.27687000   0.00000000   0.00000000   0.00000000   0.00000000
   0.00000000   0.47588000   0.51960000   0.00000000   0.00000000   0.00000000   0.00000000
   0.00000000   0.00000000   0.30991000   0.00000000   0.00000000   0.00000000   0.00000000
   0.00000000   0.00000000   0.00000000   1.00000000   0.00000000   0.00000000   0.00000000
   0.00000000   0.00000000   0.00000000   0.00000000   1.00000000   0.00000000   0.00000000
   0.00000000   0.00000000   0.00000000   0.00000000   0.00000000   1.00000000   0.00000000
   0.00000000   0.00000000   0.00000000   0.00000000   0.00000000   0.00000000   1.00000000
* p-type functions
   16    6
       9341.40000000
       2208.60000000
        716.27000000
        272.51000000
        113.77000000
         52.57100000
         25.39700000
         12.77000000
          6.62240000
          3.53880000
          1.87560000
          0.99018000
          0.47723000
          0.22692000
          0.10473000
          0.04530300
   1.94930e-5   0.00000000   0.00000000   0.00000000   0.00000000   0.00000000
   0.00017432   6.10440e-7   0.00000000   0.00000000   0.00000000   0.00000000
   0.00101610  -3.37610e-7   0.00000000   0.00000000   0.00000000   0.00000000
   0.00461720   1.06260e-5   0.00000000   0.00000000   0.00000000   0.00000000
   0.01716300  -5.01760e-5   0.00000000   0.00000000   0.00000000   0.00000000
   0.04813200  -7.80470e-5   0.00000000   0.00000000   0.00000000   0.00000000
   0.11704000  -0.00161880   0.00000000   0.00000000   0.00000000   0.00000000
   0.21602000  -0.00265510   0.00000000   0.00000000   0.00000000   0.00000000
   0.29528000  -0.01377700   0.00000000   0.00000000   0.00000000   0.00000000
   0.28825000   0.00242460   0.00000000   0.00000000   0.00000000   0.00000000
   0.17982000   0.00058572   0.00000000   0.00000000   0.00000000   0.00000000
   0.00000000   0.16518000   0.00000000   0.00000000   0.00000000   0.00000000
   0.00000000   0.00000000   1.00000000   0.00000000   0.00000000   0.00000000
   0.00000000   0.00000000   0.00000000   1.00000000   0.00000000   0.00000000
   0.00000000   0.00000000   0.00000000   0.00000000   1.00000000   0.00000000
   0.00000000   0.00000000   0.00000000   0.00000000   0.00000000   1.00000000
* d-type functions
    6    6
         22.93000000
          6.55000000
          2.26000000
          0.81000000
          0.35100000
          0.14600000
   1.00000000   0.00000000   0.00000000   0.00000000   0.00000000   0.00000000
   0.00000000   1.00000000   0.00000000   0.00000000   0.00000000   0.00000000
   0.00000000   0.00000000   1.00000000   0.00000000   0.00000000   0.00000000
   0.00000000   0.00000000   0.00000000   1.00000000   0.00000000   0.00000000
   0.00000000   0.00000000   0.00000000   0.00000000   1.00000000   0.00000000
   0.00000000   0.00000000   0.00000000   0.00000000   0.00000000   1.00000000
* f-type functions
    3    3
          3.59000000
          0.84000000
          0.35000000
   1.00000000   0.00000000   0.00000000
   0.00000000   1.00000000   0.00000000
   0.00000000   0.00000000   1.00000000
* g-type functions
    2    2
          1.76000000
          0.59000000
   1.00000000   0.00000000
   0.00000000   1.00000000
* h-type functions
    1    1
          0.95000000
   1.00000000

/Cl.pc-4.Jensen.21s16p6d3f2g1h.7s6p6d3f2g1h.
F. Jensen, T. Helgaker. J. Chem. Phys. 121 (2004) 3463-3470. doi:10.1063/1.1756866
CHLORINE (21s,16p,6d,3f,2g,1h) -> [7s,6p,6d,3f,2g,1h]
    17.0   5
* s-type functions
   21    7
    7421200.00000000
    1141100.00000000
     264430.00000000
      75791.00000000
      24925.00000000
       9052.60000000
       3548.10000000
       1478.00000000
        647.35000000
        295.33000000
        138.98000000
         67.54900000
         33.66100000
         17.02700000
          8.15040000
          4.13190000
          2.04570000
          0.94029000
          0.46901000
          0.22219000
          0.10220000
   1.49920e-6   0.00000000   0.00000000   0.00000000   0.00000000   0.00000000   0.00000000
   1.12430e-5   0.00000000   0.00000000   0.00000000   0.00000000   0.00000000   0.00000000
   0.00005800   0.00000000   0.00000000   0.00000000   0.00000000   0.00000000   0.00000000
   0.00024215   0.00000000   0.00000000   0.00000000   0.00000000   0.00000000   0.00000000
   0.00087550  -1.33580e-6   0.00000000   0.00000000   0.00000000   0.00000000   0.00000000
   0.00283760  -1.84400e-6  -3.70580e-6   0.00000000   0.00000000   0.00000000   0.00000000
   0.00840860  -5.81690e-5  -2.92350e-5   0.00000000   0.00000000   0.00000000   0.00000000
   0.02290600  -0.00026634  -0.00018902   0.00000000   0.00000000   0.00000000   0.00000000
   0.05689500  -0.00191720  -0.00109400   0.00000000   0.00000000   0.00000000   0.00000000
   0.12569000  -0.00835970  -0.00529080   0.00000000   0.00000000   0.00000000   0.00000000
   0.23327000  -0.03750200  -0.02220500   0.00000000   0.00000000   0.00000000   0.00000000
   0.31894000  -0.09949500  -0.06245500   0.00000000   0.00000000   0.00000000   0.00000000
   0.27117000  -0.20640000  -0.12439000   0.00000000   0.00000000   0.00000000   0.00000000
   0.10247000  -0.00520630  -0.01497300   0.00000000   0.00000000   0.00000000   0.00000000
   0.00830670   0.50048000   0.36440000   0.00000000   0.00000000   0.00000000   0.00000000
   0.00000000   0.83332000   0.68717000   0.00000000   0.00000000   0.00000000   0.00000000
   0.00000000   0.00000000   0.39343000   0.00000000   0.00000000   0.00000000   0.00000000
   0.00000000   0.00000000   0.00000000   1.00000000   0.00000000   0.00000000   0.00000000
   0.00000000   0.00000000   0.00000000   0.00000000   1.00000000   0.00000000   0.00000000
   0.00000000   0.00000000   0.00000000   0.00000000   0.00000000   1.00000000   0.00000000
   0.00000000   0.00000000   0.00000000   0.00000000   0.00000000   0.00000000   1.00000000
* p-type functions
   16    6
      11035.00000000
       2611.50000000
        848.02000000
        323.00000000
        135.33000000
         62.68400000
         30.29800000
         15.24000000
          7.92590000
          4.28530000
          2.30430000
          1.23570000
          0.60021000
          0.28739000
          0.13185000
          0.05697000
   1.85140e-5   0.00000000   0.00000000   0.00000000   0.00000000   0.00000000
   0.00016527   5.61370e-7   0.00000000   0.00000000   0.00000000   0.00000000
   0.00096233  -3.48440e-7   0.00000000   0.00000000   0.00000000   0.00000000
   0.00437770   9.20070e-6   0.00000000   0.00000000   0.00000000   0.00000000
   0.01621800  -5.11180e-5   0.00000000   0.00000000   0.00000000   0.00000000
   0.04610400  -0.00010597   0.00000000   0.00000000   0.00000000   0.00000000
   0.11348000  -0.00166890   0.00000000   0.00000000   0.00000000   0.00000000
   0.21353000  -0.00309980   0.00000000   0.00000000   0.00000000   0.00000000
   0.29438000  -0.01462800   0.00000000   0.00000000   0.00000000   0.00000000
   0.28778000   0.00123450   0.00000000   0.00000000   0.00000000   0.00000000
   0.18269000   0.00153150   0.00000000   0.00000000   0.00000000   0.00000000
   0.00000000   0.16993000   0.00000000   0.00000000   0.00000000   0.00000000
   0.00000000   0.00000000   1.00000000   0.00000000   0.00000000   0.00000000
   0.00000000   0.00000000   0.00000000   1.00000000   0.00000000   0.00000000
   0.00000000   0.00000000   0.00000000   0.00000000   1.00000000   0.00000000
   0.00000000   0.00000000   0.00000000   0.00000000   0.00000000   1.00000000
* d-type functions
    6    6
         24.63000000
          7.04000000
          2.43000000
          0.87000000
          0.37700000
          0.15700000
   1.00000000   0.00000000   0.00000000   0.00000000   0.00000000   0.00000000
   0.00000000   1.00000000   0.00000000   0.00000000   0.00000000   0.00000000
   0.00000000   0.00000000   1.00000000   0.00000000   0.00000000   0.00000000
   0.00000000   0.00000000   0.00000000   1.00000000   0.00000000   0.00000000
   0.00000000   0.00000000   0.00000000   0.00000000   1.00000000   0.00000000
   0.00000000   0.00000000   0.00000000   0.00000000   0.00000000   1.00000000
* f-type functions
    3    3
          4.06000000
          0.95000000
          0.39000000
   1.00000000   0.00000000   0.00000000
   0.00000000   1.00000000   0.00000000
   0.00000000   0.00000000   1.00000000
* g-type functions
    2    2
          1.97000000
          0.66000000
   1.00000000   0.00000000
   0.00000000   1.00000000
* h-type functions
    1    1
          1.04000000
   1.00000000

/Ar.pc-4.Jensen.21s16p6d3f2g1h.7s6p6d3f2g1h.
F. Jensen. J. Phys. Chem. A 111 (2007) 11198-11204. doi:10.1021/jp068677h
ARGON (21s,16p,6d,3f,2g,1h) -> [7s,6p,6d,3f,2g,1h]
    18.0   5
* s-type functions
   21    7
    9445100.00000000
    1414100.00000000
     321810.00000000
      91158.00000000
      29743.00000000
      10740.00000000
       4190.00000000
       1738.90000000
        759.29000000
        345.50000000
        162.36000000
         78.88800000
         39.32100000
         19.91800000
          9.57640000
          4.91610000
          2.46480000
          1.18300000
          0.57521000
          0.27041000
          0.12312000
   6.47130e-7   0.00000000   0.00000000   0.00000000   0.00000000   0.00000000   0.00000000
   5.03360e-6   0.00000000   0.00000000   0.00000000   0.00000000   0.00000000   0.00000000
   2.64820e-5   0.00000000   0.00000000   0.00000000   0.00000000   0.00000000   0.00000000
   0.00011190   0.00000000   0.00000000   0.00000000   0.00000000   0.00000000   0.00000000
   0.00040791  -5.62840e-7   0.00000000   0.00000000   0.00000000   0.00000000   0.00000000
   0.00133090  -4.04410e-7  -4.30140e-6   0.00000000   0.00000000   0.00000000   0.00000000
   0.00396580  -2.36590e-5  -3.22640e-5   0.00000000   0.00000000   0.00000000   0.00000000
   0.01086300  -0.00010267  -0.00021559   0.00000000   0.00000000   0.00000000   0.00000000
   0.02715900  -0.00077891  -0.00124380   0.00000000   0.00000000   0.00000000   0.00000000
   0.06051400  -0.00337400  -0.00612440   0.00000000   0.00000000   0.00000000   0.00000000
   0.11351000  -0.01548200  -0.02587800   0.00000000   0.00000000   0.00000000   0.00000000
   0.15827000  -0.04168700  -0.07483000   0.00000000   0.00000000   0.00000000   0.00000000
   0.13900000  -0.08942400  -0.15278000   0.00000000   0.00000000   0.00000000   0.00000000
   0.05564500  -0.01062200  -0.03707900   0.00000000   0.00000000   0.00000000   0.00000000
   0.00513770   0.20099000   0.43524000   0.00000000   0.00000000   0.00000000   0.00000000
   0.00000000   0.36722000   0.88582000   0.00000000   0.00000000   0.00000000   0.00000000
   0.00000000   0.00000000   0.60951000   0.00000000   0.00000000   0.00000000   0.00000000
   0.00000000   0.00000000   0.00000000   1.00000000   0.00000000   0.00000000   0.00000000
   0.00000000   0.00000000   0.00000000   0.00000000   1.00000000   0.00000000   0.00000000
   0.00000000   0.00000000   0.00000000   0.00000000   0.00000000   1.00000000   0.00000000
   0.00000000   0.00000000   0.00000000   0.00000000   0.00000000   0.00000000   1.00000000
* p-type functions
   16    6
      13006.00000000
       3078.10000000
        999.56000000
        380.97000000
        160.28000000
         74.49400000
         36.06500000
         18.16400000
          9.46650000
          5.16300000
          2.80850000
          1.52350000
          0.74379000
          0.35680000
          0.16221000
          0.06995600
[...]
   0.00641110  -0.00118090   0.00039179   0.00019757   0.00000000   0.00000000   0.00000000   0.00000000
   0.01773400  -0.00328270   0.00109430   0.00055166   0.00000000   0.00000000   0.00000000   0.00000000
   0.04535100  -0.00854890   0.00284210   0.00143390   0.00000000   0.00000000   0.00000000   0.00000000
   0.10617000  -0.02059900   0.00691530   0.00348860   0.00000000   0.00000000   0.00000000   0.00000000
   0.22004000  -0.04576700   0.01538700   0.00777770   0.00000000   0.00000000   0.00000000   0.00000000
   0.38468000  -0.08999000   0.03102100   0.01570000   0.00000000   0.00000000   0.00000000   0.00000000
   0.50000000  -0.14671000   0.05148600   0.02620700   0.00000000   0.00000000   0.00000000   0.00000000
   0.39871000  -0.16232000   0.06173900   0.03160700   0.00000000   0.00000000   0.00000000   0.00000000
   0.13789000  -0.02208100   0.00613870   0.00328120   0.00000000   0.00000000   0.00000000   0.00000000
   0.00941110   0.33454000  -0.16623000  -0.08925000   0.00000000   0.00000000   0.00000000   0.00000000
   0.00031410   0.50000000  -0.35715000  -0.20072000   0.00000000   0.00000000   0.00000000   0.00000000
  -0.00026619   0.23288000  -0.16252000  -0.09786700   0.00000000   0.00000000   0.00000000   0.00000000
   0.00017134   0.02225300   0.32084000   0.22819000   0.00000000   0.00000000   0.00000000   0.00000000
  -9.95040e-5  -0.00045566   0.50000000   0.50000000   0.00000000   0.00000000   0.00000000   0.00000000
   0.00000000   0.00000000   0.00000000   0.00000000   1.00000000   0.00000000   0.00000000   0.00000000
   0.00000000   0.00000000   0.00000000   0.00000000   0.00000000   1.00000000   0.00000000   0.00000000
   0.00000000   0.00000000   0.00000000   0.00000000   0.00000000   0.00000000   1.00000000   0.00000000
   0.00000000   0.00000000   0.00000000   0.00000000   0.00000000   0.00000000   0.00000000   1.00000000
* p-type functions
   19    7
      79850.00000000
      18951.00000000
       6164.60000000
       2366.80000000
       1014.30000000
        466.54000000
        225.35000000
        113.69000000
         59.01500000
         31.58500000
         17.19000000
          9.42170000
          4.88210000
          2.51890000
          1.26990000
          0.58164000
          0.26697000
          0.11671000
          0.04827400
   1.25290e-5  -4.00520e-6  -2.89590e-6   0.00000000   0.00000000   0.00000000   0.00000000
   0.00011171  -3.57420e-5  -2.59280e-5   0.00000000   0.00000000   0.00000000   0.00000000
   0.00065414  -0.00020946  -0.00015149   0.00000000   0.00000000   0.00000000   0.00000000
   0.00297890  -0.00095676  -0.00069430   0.00000000   0.00000000   0.00000000   0.00000000
   0.01116700  -0.00360780  -0.00261220   0.00000000   0.00000000   0.00000000   0.00000000
   0.03694800  -0.01207100  -0.00877630   0.00000000   0.00000000   0.00000000   0.00000000
   0.10122000  -0.03384300  -0.02459800   0.00000000   0.00000000   0.00000000   0.00000000
   0.23214000  -0.08038800  -0.05888400   0.00000000   0.00000000   0.00000000   0.00000000
   0.40877000  -0.15047000  -0.11049000   0.00000000   0.00000000   0.00000000   0.00000000
   0.50000000  -0.18727000  -0.13926000   0.00000000   0.00000000   0.00000000   0.00000000
   0.37545000  -0.11112000  -0.07674700   0.00000000   0.00000000   0.00000000   0.00000000
   0.13665000   0.19262000   0.17293000   0.00000000   0.00000000   0.00000000   0.00000000
   0.01462900   0.49566000   0.46856000   0.00000000   0.00000000   0.00000000   0.00000000
  -0.00059757   0.50000000   0.50000000   0.00000000   0.00000000   0.00000000   0.00000000
   0.00024417   0.22378000   0.09002000   0.00000000   0.00000000   0.00000000   0.00000000
   0.00000000   0.00000000   0.00000000   1.00000000   0.00000000   0.00000000   0.00000000
   0.00000000   0.00000000   0.00000000   0.00000000   1.00000000   0.00000000   0.00000000
   0.00000000   0.00000000   0.00000000   0.00000000   0.00000000   1.00000000   0.00000000
   0.00000000   0.00000000   0.00000000   0.00000000   0.00000000   0.00000000   1.00000000
* d-type functions
   13    5
       1478.60000000
        446.92000000
        174.15000000
         78.51100000
         37.52000000
         18.45000000
          9.49670000
          4.91160000
          2.51990000
          1.25590000
          0.59978000
          0.25295000
          0.10500000
   0.00012463   0.00000000   0.00000000   0.00000000   0.00000000
   0.00124210   0.00000000   0.00000000   0.00000000   0.00000000
   0.00721160   0.00000000   0.00000000   0.00000000   0.00000000
   0.02916700   0.00000000   0.00000000   0.00000000   0.00000000
   0.09703900   0.00000000   0.00000000   0.00000000   0.00000000
   0.22907000   0.00000000   0.00000000   0.00000000   0.00000000
   0.39708000   0.00000000   0.00000000   0.00000000   0.00000000
   0.50000000   0.00000000   0.00000000   0.00000000   0.00000000
   0.47765000   0.00000000   0.00000000   0.00000000   0.00000000
   0.00000000   1.00000000   0.00000000   0.00000000   0.00000000
   0.00000000   0.00000000   1.00000000   0.00000000   0.00000000
   0.00000000   0.00000000   0.00000000   1.00000000   0.00000000
   0.00000000   0.00000000   0.00000000   0.00000000   1.00000000
* f-type functions
    4    4
          6.99000000
          2.06000000
          0.61000000
          0.24200000
   1.00000000   0.00000000   0.00000000   0.00000000
   0.00000000   1.00000000   0.00000000   0.00000000
   0.00000000   0.00000000   1.00000000   0.00000000
   0.00000000   0.00000000   0.00000000   1.00000000
* g-type functions
    2    2
          1.86000000
          0.46000000
   1.00000000   0.00000000
   0.00000000   1.00000000
* h-type functions
    1    1
          0.70000000
   1.00000000

/Br.pc-4.Jensen.24s19p13d4f2g1h.8s7p5d4f2g1h.
F. Jensen. J. Chem. Phys. 136 (2012) 114107. doi:10.1063/1.3690460
BROMINE (24s,19p,13d,4f,2g,1h) -> [8s,7p,5d,4f,2g,1h]
    35.0   5
* s-type functions
   24    8
   67476000.00000000
   10151000.00000000
    2322000.00000000
     660950.00000000
     216600.00000000
      78562.00000000
      30791.00000000
      12834.00000000
       5626.10000000
       2572.90000000
       1220.50000000
        596.37000000
        299.11000000
        153.73000000
         80.21600000
         40.06600000
         20.82700000
         11.00900000
          5.69250000
          2.90690000
          1.44660000
          0.56731000
          0.26161000
          0.11239000
   9.54810e-7  -1.70880e-7   5.49320e-8   2.86640e-8   0.00000000   0.00000000   0.00000000   0.00000000
   7.37020e-6  -1.31840e-6   4.24270e-7   2.21360e-7   0.00000000   0.00000000   0.00000000   0.00000000
   3.85020e-5  -6.89250e-6   2.21470e-6   1.15570e-6   0.00000000   0.00000000   0.00000000   0.00000000
   0.00016176  -2.89370e-5   9.31630e-6   4.86040e-6   0.00000000   0.00000000   0.00000000   0.00000000
   0.00058674  -0.00010512   3.37630e-5   0.00001762   0.00000000   0.00000000   0.00000000   0.00000000
   0.00190720  -0.00034162   0.00011007   5.74210e-5   0.00000000   0.00000000   0.00000000   0.00000000
   0.00568200  -0.00102230   0.00032830   0.00017135   0.00000000   0.00000000   0.00000000   0.00000000
   0.01570500  -0.00283780   0.00091599   0.00047790   0.00000000   0.00000000   0.00000000   0.00000000
   0.04035600  -0.00741170   0.00238470   0.00124520   0.00000000   0.00000000   0.00000000   0.00000000
   0.09547000  -0.01799800   0.00584650   0.00305240   0.00000000   0.00000000   0.00000000   0.00000000
   0.20208000  -0.04053400   0.01317400   0.00689150   0.00000000   0.00000000   0.00000000   0.00000000
   0.36522000  -0.08168300   0.02718400   0.01423600   0.00000000   0.00000000   0.00000000   0.00000000
   0.50000000  -0.13724000   0.04639700   0.02443200   0.00000000   0.00000000   0.00000000   0.00000000
   0.43751000  -0.16606000   0.06039600   0.03197800   0.00000000   0.00000000   0.00000000   0.00000000
   0.18015000  -0.05594800   0.01976000   0.01070100   0.00000000   0.00000000   0.00000000   0.00000000
   0.01784900   0.28847000  -0.13604000  -0.07548400   0.00000000   0.00000000   0.00000000   0.00000000
  -0.00072489   0.50000000  -0.33015000  -0.19149000   0.00000000   0.00000000   0.00000000   0.00000000
   0.00023991   0.27081000  -0.20723000  -0.12916000   0.00000000   0.00000000   0.00000000   0.00000000
  -8.37960e-5   0.03448900   0.24618000   0.17861000   0.00000000   0.00000000   0.00000000   0.00000000
   3.26010e-5  -0.00038920   0.50000000   0.50000000   0.00000000   0.00000000   0.00000000   0.00000000
   0.00000000   0.00000000   0.00000000   0.00000000   1.00000000   0.00000000   0.00000000   0.00000000
   0.00000000   0.00000000   0.00000000   0.00000000   0.00000000   1.00000000   0.00000000   0.00000000
   0.00000000   0.00000000   0.00000000   0.00000000   0.00000000   0.00000000   1.00000000   0.00000000
   0.00000000   0.00000000   0.00000000   0.00000000   0.00000000   0.00000000   0.00000000   1.00000000
* p-type functions
   19    7
      94089.00000000
      22223.00000000
       7202.70000000
       2752.40000000
       1172.00000000
        534.38000000
        257.10000000
        129.26000000
         67.01200000
         35.84400000
         19.44000000
         10.59100000
          5.50710000
          2.86210000
          1.45680000
          0.68481000
          0.31755000
          0.13895000
          0.05796200
   1.04860e-5  -3.31510e-6  -2.36990e-6   0.00000000   0.00000000   0.00000000   0.00000000
   9.43370e-5  -2.97580e-5  -2.13540e-5   0.00000000   0.00000000   0.00000000   0.00000000
   0.00055675  -0.00017625  -0.00012604   0.00000000   0.00000000   0.00000000   0.00000000
   0.00256800  -0.00081302  -0.00058357   0.00000000   0.00000000   0.00000000   0.00000000
   0.00981670  -0.00313340  -0.00224330   0.00000000   0.00000000   0.00000000   0.00000000
   0.03316600  -0.01067200  -0.00767500   0.00000000   0.00000000   0.00000000   0.00000000
   0.09218000  -0.03039400  -0.02184500   0.00000000   0.00000000   0.00000000   0.00000000
   0.21638000  -0.07362500  -0.05334400   0.00000000   0.00000000   0.00000000   0.00000000
   0.39088000  -0.14158000  -0.10283000   0.00000000   0.00000000   0.00000000   0.00000000
   0.50000000  -0.18521000  -0.13638000   0.00000000   0.00000000   0.00000000   0.00000000
   0.39868000  -0.12544000  -0.08724100   0.00000000   0.00000000   0.00000000   0.00000000
   0.15526000   0.16365000   0.14807000   0.00000000   0.00000000   0.00000000   0.00000000
   0.01800600   0.47374000   0.44760000   0.00000000   0.00000000   0.00000000   0.00000000
  -0.00052009   0.50000000   0.50000000   0.00000000   0.00000000   0.00000000   0.00000000
   0.00023157   0.23222000   0.10625000   0.00000000   0.00000000   0.00000000   0.00000000
   0.00000000   0.00000000   0.00000000   1.00000000   0.00000000   0.00000000   0.00000000
   0.00000000   0.00000000   0.00000000   0.00000000   1.00000000   0.00000000   0.00000000
   0.00000000   0.00000000   0.00000000   0.00000000   0.00000000   1.00000000   0.00000000
   0.00000000   0.00000000   0.00000000   0.00000000   0.00000000   0.00000000   1.00000000
* d-type functions
   13    5
       1563.10000000
        473.56000000
        184.88000000
         83.56700000
         40.14900000
         19.82200000
         10.22400000
          5.30370000
          2.74220000
          1.38030000
          0.66453000
          0.27338000
          0.11400000
   0.00012889   0.00000000   0.00000000   0.00000000   0.00000000
   0.00127950   0.00000000   0.00000000   0.00000000   0.00000000
   0.00740490   0.00000000   0.00000000   0.00000000   0.00000000
   0.02976200   0.00000000   0.00000000   0.00000000   0.00000000
   0.09808200   0.00000000   0.00000000   0.00000000   0.00000000
   0.23174000   0.00000000   0.00000000   0.00000000   0.00000000
   0.40004000   0.00000000   0.00000000   0.00000000   0.00000000
   0.50000000   0.00000000   0.00000000   0.00000000   0.00000000
   0.46537000   0.00000000   0.00000000   0.00000000   0.00000000
   0.00000000   1.00000000   0.00000000   0.00000000   0.00000000
   0.00000000   0.00000000   1.00000000   0.00000000   0.00000000
   0.00000000   0.00000000   0.00000000   1.00000000   0.00000000
   0.00000000   0.00000000   0.00000000   0.00000000   1.00000000
* f-type functions
    4    4
          7.69000000
          2.26000000
          0.67000000
          0.26600000
   1.00000000   0.00000000   0.00000000   0.00000000
   0.00000000   1.00000000   0.00000000   0.00000000
   0.00000000   0.00000000   1.00000000   0.00000000
   0.00000000   0.00000000   0.00000000   1.00000000
* g-type functions
    2    2
          2.04000000
          0.51000000
   1.00000000   0.00000000
   0.00000000   1.00000000
* h-type functions
    1    1
          0.77000000
   1.00000000

/Kr.pc-4.Jensen.24s19p13d4f2g1h.8s7p5d4f2g1h.
F. Jensen. J. Chem. Phys. 136 (2012) 114107. doi:10.1063/1.3690460
KRYPTON (24s,19p,13d,4f,2g,1h) -> [8s,7p,5d,4f,2g,1h]
    36.0   5
* s-type functions
   24    8
   81180000.00000000
   12174000.00000000
    2775000.00000000
     787190.00000000
     257190.00000000
      92980.00000000
      36316.00000000
      15086.00000000
       6592.60000000
       3007.20000000
       1422.90000000
        693.38000000
        347.15000000
        177.90000000
         92.35300000
         45.34100000
         23.69400000
         12.58300000
          6.60500000
          3.35410000
          1.66220000
          0.65406000
          0.30317000
          0.12970000
   8.32860e-7  -1.47110e-7   4.59880e-8   2.45590e-8   0.00000000   0.00000000   0.00000000   0.00000000
   6.46080e-6  -1.14080e-6   3.56980e-7   1.90610e-7   0.00000000   0.00000000   0.00000000   0.00000000
   3.39210e-5  -5.99270e-6   1.87260e-6   1.00010e-6   0.00000000   0.00000000   0.00000000   0.00000000
   0.00014313  -2.52730e-5   7.91240e-6   4.22440e-6   0.00000000   0.00000000   0.00000000   0.00000000
   0.00052131  -9.21610e-5   2.87860e-5   1.53760e-5   0.00000000   0.00000000   0.00000000   0.00000000
   0.00170290  -0.00030106   0.00009432   5.03530e-5   0.00000000   0.00000000   0.00000000   0.00000000
   0.00509980  -0.00090494   0.00028262   0.00015099   0.00000000   0.00000000   0.00000000   0.00000000
   0.01417600  -0.00252640   0.00079282   0.00042327   0.00000000   0.00000000   0.00000000   0.00000000
   0.03667100  -0.00662910   0.00207380   0.00110840   0.00000000   0.00000000   0.00000000   0.00000000
   0.08754500  -0.01621800   0.00511930   0.00273470   0.00000000   0.00000000   0.00000000   0.00000000
   0.18835000  -0.03688600   0.01164700   0.00623600   0.00000000   0.00000000   0.00000000   0.00000000
   0.34917000  -0.07573000   0.02444300   0.01309400   0.00000000   0.00000000   0.00000000   0.00000000
   0.50000000  -0.13072000   0.04282300   0.02307600   0.00000000   0.00000000   0.00000000   0.00000000
   0.47325000  -0.16969000   0.05939000   0.03214600   0.00000000   0.00000000   0.00000000   0.00000000
   0.22200000  -0.08217400   0.02931100   0.01621900   0.00000000   0.00000000   0.00000000   0.00000000
   0.02729800   0.25094000  -0.11350000  -0.06449100   0.00000000   0.00000000   0.00000000   0.00000000
  -0.00187150   0.50000000  -0.30906000  -0.18282000   0.00000000   0.00000000   0.00000000   0.00000000
   0.00085263   0.30737000  -0.23963000  -0.15312000   0.00000000   0.00000000   0.00000000   0.00000000
  -0.00039627   0.04859400   0.19059000   0.14123000   0.00000000   0.00000000   0.00000000   0.00000000
   0.00018344  -3.28840e-5   0.50000000   0.50000000   0.00000000   0.00000000   0.00000000   0.00000000
   0.00000000   0.00000000   0.00000000   0.00000000   1.00000000   0.00000000   0.00000000   0.00000000
   0.00000000   0.00000000   0.00000000   0.00000000   0.00000000   1.00000000   0.00000000   0.00000000
   0.00000000   0.00000000   0.00000000   0.00000000   0.00000000   0.00000000   1.00000000   0.00000000
   0.00000000   0.00000000   0.00000000   0.00000000   0.00000000   0.00000000   0.00000000   1.00000000
* p-type functions
   19    7
      97285.00000000
      23066.00000000
       7508.30000000
       2884.20000000
       1235.00000000
        565.95000000
        273.29000000
        137.78000000
         71.57900000
         38.34700000
         20.85300000
         11.39900000
          5.94440000
          3.11500000
          1.60600000
          0.78222000
          0.36532000
          0.16062000
          0.06769300
   1.09750e-5  -3.50540e-6  -2.49400e-6   0.00000000   0.00000000   0.00000000   0.00000000
   9.79260e-5  -3.12330e-5  -2.23030e-5   0.00000000   0.00000000   0.00000000   0.00000000
   0.00057287  -0.00018325  -0.00013042   0.00000000   0.00000000   0.00000000   0.00000000
   0.00261350  -0.00083663  -0.00059763   0.00000000   0.00000000   0.00000000   0.00000000
   0.00989290  -0.00319120  -0.00227390   0.00000000   0.00000000   0.00000000   0.00000000
   0.03318100  -0.01079800  -0.00772860   0.00000000   0.00000000   0.00000000   0.00000000
   0.09196200  -0.03065000  -0.02192900   0.00000000   0.00000000   0.00000000   0.00000000
   0.21555000  -0.07419800  -0.05352600   0.00000000   0.00000000   0.00000000   0.00000000
   0.39031000  -0.14293000  -0.10341000   0.00000000   0.00000000   0.00000000   0.00000000
   0.50000000  -0.18757000  -0.13764000   0.00000000   0.00000000   0.00000000   0.00000000
   0.39972000  -0.12747000  -0.08816700   0.00000000   0.00000000   0.00000000   0.00000000
   0.15743000   0.16250000   0.14787000   0.00000000   0.00000000   0.00000000   0.00000000
   0.01870900   0.47704000   0.45575000   0.00000000   0.00000000   0.00000000   0.00000000
  -0.00057875   0.50000000   0.50000000   0.00000000   0.00000000   0.00000000   0.00000000
   0.00026790   0.22892000   0.10108000   0.00000000   0.00000000   0.00000000   0.00000000
   0.00000000   0.00000000   0.00000000   1.00000000   0.00000000   0.00000000   0.00000000
   0.00000000   0.00000000   0.00000000   0.00000000   1.00000000   0.00000000   0.00000000
   0.00000000   0.00000000   0.00000000   0.00000000   0.00000000   1.00000000   0.00000000
   0.00000000   0.00000000   0.00000000   0.00000000   0.00000000   0.00000000   1.00000000
* d-type functions
   13    5
       2219.70000000
        670.13000000
        263.09000000
        116.69000000
         54.85600000
         27.84700000
         14.74500000
          7.88270000
          4.17030000
          2.16820000
          1.10320000
          0.52379000
          0.21800000
   7.03140e-5   0.00000000   0.00000000   0.00000000   0.00000000
   0.00071349   0.00000000   0.00000000   0.00000000   0.00000000
   0.00424790   0.00000000   0.00000000   0.00000000   0.00000000
   0.01943900   0.00000000   0.00000000   0.00000000   0.00000000
   0.06849500   0.00000000   0.00000000   0.00000000   0.00000000
   0.16348000   0.00000000   0.00000000   0.00000000   0.00000000
   0.31872000   0.00000000   0.00000000   0.00000000   0.00000000
   0.45606000   0.00000000   0.00000000   0.00000000   0.00000000
   0.50000000   0.00000000   0.00000000   0.00000000   0.00000000
   0.00000000   1.00000000   0.00000000   0.00000000   0.00000000
   0.00000000   0.00000000   1.00000000   0.00000000   0.00000000
   0.00000000   0.00000000   0.00000000   1.00000000   0.00000000
   0.00000000   0.00000000   0.00000000   0.00000000   1.00000000
* f-type functions
    4    4
          8.46000000
          2.49000000
          0.73000000
          0.29300000
   1.00000000   0.00000000   0.00000000   0.00000000
   0.00000000   1.00000000   0.00000000   0.00000000
   0.00000000   0.00000000   1.00000000   0.00000000
   0.00000000   0.00000000   0.00000000   1.00000000
* g-type functions
    2    2
          2.25000000
          0.56000000
   1.00000000   0.00000000
   0.00000000   1.00000000
* h-type functions
    1    1
          0.84000000
   1.00000000
