************************************************************************
* This file is part of OpenMolcas.                                     *
*                                                                      *
* OpenMolcas is free software; you can redistribute it and/or modify   *
* it under the terms of the GNU Lesser General Public License, v. 2.1. *
* OpenMolcas is distributed in the hope that it will be useful, but it *
* is provided "as is" and without any express or implied warranties.   *
* For more details see the full text of the license in the file        *
* LICENSE or in <http://www.gnu.org/licenses/>.                        *
************************************************************************
==== VALID DATA STARTS JUST AFTER THIS LINE ============================
LIQR-1S MV&DW POTENTIALS START
       200
  .3039606551848D-03  .3235644331733D-03  .3444325462159D-03  .3666465369178D-03
  .3902932069304D-03  .4154649561307D-03  .4422601436757D-03  .4707834723430D-03
  .5011463976592D-03  .5334675634148D-03  .5678732652675D-03  .6044979442449D-03
  .6434847120759D-03  .6849859104032D-03  .7291637060610D-03  .7761907247459D-03
  .8262507255554D-03  .8795393190306D-03  .9362647315085D-03  .9966486187710D-03
  .1060926932170D-02  .1129350840612D-02  .1202187712005D-02  .1279722158009D-02
  .1362257146155D-02  .1450115183703D-02  .1543639577844D-02  .1643195777182D-02
  .1749172799727D-02  .1861984752999D-02  .1982072452157D-02  .2109905142495D-02
  .2245982333028D-02  .2390835748336D-02  .2545031406287D-02  .2709171829764D-02
  .2883898401040D-02  .3069893867989D-02  .3267885011941D-02  .3478645487591D-02
  .3702998846081D-02  .3941821753032D-02  .4196047414145D-02  .4466669221714D-02
  .4754744636333D-02  .5061399318946D-02  .5387831529389D-02  .5735316808617D-02
  .6105212962911D-02  .6498965369533D-02  .6918112624567D-02  .7364292555021D-02
  .7839248618670D-02  .8344836716653D-02  .8883032445452D-02  .9455938816571D-02
  .1006579447411D-01  .1071498244229D-01  .1140603943722D-01  .1214166577912D-01
  .1292473594391D-01  .1375830979527D-01  .1464564454114D-01  .1559020746132D-01
  .1659568945595D-01  .1766601946778D-01  .1880537983459D-01  .2001822263177D-01
  .2130928706890D-01  .2268361800834D-01  .2414658567808D-01  .2570390665611D-01
  .2736166620797D-01  .2912634206514D-01  .3100482973689D-01  .3300446945461D-01
  .3513307485395D-01  .3739896350678D-01  .3981098942224D-01  .4237857764401D-01
  .4511176107887D-01  .4802121970048D-01  .5111832228164D-01  .5441517081799D-01
  .5792464781682D-01  .6166046663577D-01  .6563722506807D-01  .6987046238370D-01
  .7437672004948D-01  .7917360636515D-01  .8427986526825D-01  .8971544957640D-01
  .9550159895340D-01  .1016609229037D+00  .1082174891195D+00  .1151969175257D+00
  .1226264803905D+00  .1305352088923D+00  .1389540065595D+00  .1479157700270D+00
  .1574555175803D+00  .1676105259903D+00  .1784204761730D+00  .1899276082436D+00
  .2021768865709D+00  .2152161754760D+00  .2290964262637D+00  .2438718763155D+00
  .2596002610238D+00  .2763430393935D+00  .2941656341949D+00  .3131376876045D+00
  .3333333333333D+00  .3548314863060D+00  .3777161510223D+00  .4020767498070D+00
  .4280084722292D+00  .4556126470579D+00  .4849971382061D+00  .5162767662114D+00
  .5495737569000D+00  .5850182189868D+00  .6227486524774D+00  .6629124898608D+00
  .7056666722042D+00  .7511782624044D+00  .7996250979890D+00  .8511964860210D+00
  .9060939428197D+00  .9645319813906D+00  .1026738949639D+01  .1092957922646D+01
  .1163447652487D+01  .1238483579314D+01  .1318358907640D+01  .1403385752048D+01
  .1493896356779D+01  .1590244393989D+01  .1692806345727D+01  .1801982975047D+01
  .1918200892002D+01  .2041914220627D+01  .2173606373443D+01  .2313791940399D+01
  .2463018699643D+01  .2621869757982D+01  .2790965829376D+01  .2970967660400D+01
  .3162578612119D+01  .3366547408493D+01  .3583671062026D+01  .3814797988110D+01
  .4060831320234D+01  .4322732438990D+01  .4601524728689D+01  .4898297576263D+01
  .5214210628063D+01  .5550498321203D+01  .5908474707154D+01  .6289538586422D+01
  .6695178974396D+01  .7126980919708D+01  .7586631697842D+01  .8075927404204D+01
  .8596779972398D+01  .9151224645153D+01  .9741427927078D+01  .1036969605032D+02
  .1103848398623D+02  .1175040503820D+02  .1250824105320D+02  .1331495329194D+02
  .1417369400002D+02  .1508781872542D+02  .1606089943037D+02  .1709673844886D+02
  .1819938334438D+02  .1937314272582D+02  .2062260308346D+02  .2195264671080D+02
  .2336847078223D+02  .2487560766107D+02  .2647994651742D+02  .2818775634024D+02
  .3000571043351D+02  .3194091249236D+02  .3400092436090D+02  .3619379558026D+02
  .3852809484240D+02  .4101294347239D+02  .4365805107027D+02  .4647375345146D+02
  .4947105303419D+02  .5266166183173D+02  .5605804721728D+02  .5967348064055D+02
  .6352208948621D+02  .6761891227696D+02  .7197995743687D+02  .7662226584469D+02
 2S
 -.1418069359831D+04 -.1238585155330D+04 -.1082920427205D+04 -.9477861208028D+03
 -.8302566894039D+03 -.7278828596016D+03 -.6385872772247D+03 -.5606021969409D+03
 -.4924186188524D+03 -.4327446027763D+03 -.3804709758657D+03 -.3346430129317D+03
 -.2944369578715D+03 -.2591404826311D+03 -.2281363603387D+03 -.2008887719043D+03
 -.1769317785160D+03 -.1558595823819D+03 -.1373182696774D+03 -.1209987868312D+03
 -.1066309470465D+03 -.9397830069043D+02 -.8283373274915D+02 -.7301567443030D+02
 -.6436483533848D+02 -.5674137838117D+02 -.5002247239580D+02 -.4410016799839D+02
 -.3887955079640D+02 -.3427713323771D+02 -.3021945227571D+02 -.2664184494308D+02
 -.2348737802999D+02 -.2070591150014D+02 -.1825327817003D+02 -.1609056461979D+02
 -.1418348037304D+02 -.1250180414181D+02 -.1101889743312D+02 -.9711277097384D+01
 -.8558239499071D+01 -.7541529937634D+01 -.6645051762549D+01 -.5854610332225D+01
 -.5157687577396D+01 -.4543243459679D+01 -.4001541076872D+01 -.3523992567601D+01
 -.3103023317649D+01 -.2731952275578D+01 -.2404886452051D+01 -.2116627910679D+01
 -.1862591762639D+01 -.1638733856479D+01 -.1441487011674D+01 -.1267704782442D+01
 -.1114611859497D+01 -.9797603238433D+00 -.8609910603685D+00 -.7563997212623D+00
 -.6643067017720D+00 -.5832306545399D+00 -.5118651249120D+00 -.4490579390479D+00
 -.3937930202081D+00 -.3451743469671D+00 -.3024118009175D+00 -.2648086812264D+00
 -.2317506896835D+00 -.2026962130369D+00 -.1771677498360D+00 -.1547443470073D+00
 -.1350549272725D+00 -.1177724025199D+00 -.1026084805969D+00 -.8930908388644D-01
 -.7765030764252D-01 -.6743485453740D-01 -.5848888935604D-01 -.5065926436996D-01
 -.4381107174630D-01 -.3782548448427D-01 -.3259785190361D-01 -.2803601970889D-01
 -.2405884818224D-01 -.2059490517103D-01 -.1758131328486D-01 -.1496273314134D-01
 -.1269046664006D-01 -.1072166613328D-01 -.9018637028868D-02 -.7548222832360D-02
 -.6281262934141D-02 -.5192114593752D-02 -.4258231585278D-02 -.3459792860379D-02
 -.2779375373097D-02 -.2201665904853D-02 -.1713207339837D-02 -.1302175379325D-02
 -.9581821565562D-03 -.6721036284946D-03 -.4359279832679D-03 -.2426226173338D-03
 -.8601750888970D-04  .3929695288580D-04  .1380594268998D-03  .2144159506587D-03
  .2719885993575D-03  .3139358409651D-03  .3430059047026D-03  .3615844762359D-03
  .3717380854333D-03  .3752546801043D-03  .3736831164085D-03  .3683737157259D-03
  .3605228018866D-03  .3512256301199D-03  .3415453057421D-03  .3326126059515D-03
  .3257896563819D-03  .3229786938129D-03  .3273015736053D-03  .3448831710751D-03
  .3907414851043D-03  .5168962227664D-03  .1126302626923D-02 -.1309054129918D-02
 -.3074039602013D-03 -.1457041272403D-03 -.8382134961940D-04 -.5306057909862D-04
 -.3561613981376D-04 -.2487919873576D-04 -.1787800572991D-04 -.1310758161914D-04
 -.9741715093238D-05 -.7299142467604D-05 -.5486145907659D-05 -.4116442862974D-05
 -.3067901060318D-05 -.2257911436659D-05 -.1628851465983D-05 -.1139341088290D-05
 -.7588957115352D-06 -.4645699000964D-06 -.2387819184034D-06 -.6785937208178D-07
  .5896037550865D-07  .1502346882079D-06  .2128237051128D-06  .2522643624862D-06
  .2730507271680D-06  .2788473217292D-06  .2726535381530D-06  .2569317307339D-06
  .2337079538532D-06  .2046518541522D-06  .1711405168409D-06  .1343098487183D-06
  .9509619928039D-07  .5427027531865D-07  .1246492617647D-07 -.2980198023048D-07
 -.7210863934603D-07 -.1141136025210D-06 -.1555426888695D-06 -.1961780453254D-06
 -.2358489771754D-06 -.2744242443109D-06 -.3118055759590D-06 -.3479222021695D-06
 -.3827262367204D-06 -.4161887752187D-06 -.4482965957837D-06 -.4790493687201D-06
 -.5084572972807D-06 -.5365391245090D-06 -.5633204515674D-06 -.5888323219421D-06
 -.6131100333009D-06 -.6361921450026D-06 -.6581196547325D-06 -.6789353225168D-06
 -.6986831263607D-06 -.7174077359638D-06 -.7337989548496D-06 -.7626400672046D-06
 -.7727401964906D-06 -.7870927856841D-06 -.8006935555616D-06 -.8135743368154D-06
 -.8257666236507D-06 -.8373014105270D-06 -.8482090598006D-06 -.8585191959921D-06
 -.8682606229985D-06 -.8774612609490D-06 -.8861480998662D-06 -.8943471678016D-06
LIQR-1S MV&DW POTENTIALS END
BEQR-1S MV&DW POTENTIALS START
       200
  .2279704913886D-03  .2426733248800D-03  .2583244096619D-03  .2749849026883D-03
  .2927199051978D-03  .3115987170980D-03  .3316951077567D-03  .3530876042572D-03
  .3758597982444D-03  .4001006725611D-03  .4259049489506D-03  .4533734581837D-03
  .4826135340569D-03  .5137394328024D-03  .5468727795457D-03  .5821430435594D-03
  .6196880441666D-03  .6596544892730D-03  .7021985486314D-03  .7474864640783D-03
  .7956951991274D-03  .8470131304587D-03  .9016407840039D-03  .9597916185065D-03
  .1021692859616D-02  .1087586387777D-02  .1157729683383D-02  .1232396832886D-02
  .1311879599795D-02  .1396488564749D-02  .1486554339118D-02  .1582428856871D-02
  .1684486749771D-02  .1793126811252D-02  .1908773554715D-02  .2031878872323D-02
  .2162923800780D-02  .2302420400992D-02  .2450913758955D-02  .2608984115694D-02
  .2777249134561D-02  .2956366314774D-02  .3147035560609D-02  .3350001916285D-02
  .3566058477250D-02  .3796049489209D-02  .4040873647041D-02  .4301487606463D-02
  .4578909722184D-02  .4874224027149D-02  .5188584468425D-02  .5523219416266D-02
  .5879436464002D-02  .6258627537490D-02  .6662274334089D-02  .7091954112428D-02
  .7549345855580D-02  .8036236831719D-02  .8554529577916D-02  .9106249334341D-02
  .9693551957931D-02  .1031873234645D-01  .1098423340585D-01  .1169265559599D-01
  .1244676709197D-01  .1324951460084D-01  .1410403487594D-01  .1501366697383D-01
  .1598196530168D-01  .1701271350625D-01  .1810993925856D-01  .1927792999208D-01
  .2052124965597D-01  .2184475654885D-01  .2325362230267D-01  .2475335209096D-01
  .2634980614047D-01  .2804922263009D-01  .2985824206668D-01  .3178393323301D-01
  .3383382080915D-01  .3601591477536D-01  .3833874171123D-01  .4081137811349D-01
  .4344348586261D-01  .4624534997683D-01  .4922791880105D-01  .5240284678777D-01
  .5578254003711D-01  .5938020477386D-01  .6320989895119D-01  .6728658718230D-01
  .7162619921505D-01  .7624569217777D-01  .8116311683959D-01  .8639768814424D-01
  .9196986029286D-01  .9790140666920D-01  .1042155049196D+00  .1109368275203D+00
  .1180916381852D+00  .1257078944927D+00  .1338153571298D+00  .1424457061827D+00
  .1516326649282D+00  .1614121316070D+00  .1718223196977D+00  .1829039072367D+00
  .1947001957678D+00  .2072572795451D+00  .2206242256462D+00  .2348532657034D+00
  .2500000000000D+00  .2661236147295D+00  .2832871132667D+00  .3015575623552D+00
  .3210063541719D+00  .3417094852935D+00  .3637478536545D+00  .3872075746585D+00
  .4121803176750D+00  .4387636642401D+00  .4670614893581D+00  .4971843673956D+00
  .5292500041532D+00  .5633836968033D+00  .5997188234918D+00  .6383973645157D+00
  .6795704571148D+00  .7233989860429D+00  .7700542122295D+00  .8197184419847D+00
  .8725857393655D+00  .9288626844853D+00  .9887691807301D+00  .1052539314036D+01
  .1120422267584D+01  .1192683295492D+01  .1269604759295D+01  .1351487231285D+01
  .1438650669001D+01  .1531435665470D+01  .1630204780082D+01  .1735343955299D+01
  .1847264024733D+01  .1966402318486D+01  .2093224372032D+01  .2228225745300D+01
  .2371933959090D+01  .2524910556370D+01  .2687753296519D+01  .2861098491083D+01
  .3045623490176D+01  .3242049329242D+01  .3451143546517D+01  .3673723182197D+01
  .3910657971047D+01  .4162873740902D+01  .4431356030365D+01  .4717153939816D+01
  .5021384230797D+01  .5345235689781D+01  .5689973773382D+01  .6056945553153D+01
  .6447584979298D+01  .6863418483865D+01  .7306070945309D+01  .7777272037742D+01
  .8278862989673D+01  .8812803778647D+01  .9381180789900D+01  .9986214968955D+01
  .1063027050002D+02  .1131586404407D+02  .1204567457278D+02  .1282255383665D+02
  .1364953750829D+02  .1452985704436D+02  .1546695231259D+02  .1646448503310D+02
  .1752635308667D+02  .1865670574580D+02  .1985995988806D+02  .2114081725518D+02
  .2250428282513D+02  .2395568436927D+02  .2550069327068D+02  .2714534668520D+02
  .2889607113180D+02  .3075970760429D+02  .3274353830270D+02  .3485531508859D+02
  .3710328977564D+02  .3949624637380D+02  .4204353541296D+02  .4475511048041D+02
  .4764156711466D+02  .5071418420772D+02  .5398496807765D+02  .5746669938352D+02
 2S
 -.4512844909237D+04 -.3938803955217D+04 -.3441584320788D+04 -.3010394911629D+04
 -.2635746243045D+04 -.2309698548101D+04 -.2025531473473D+04 -.1777537404422D+04
 -.1560853145274D+04 -.1371322281087D+04 -.1205382209976D+04 -.1059971066131D+04
 -.9324507322482D+03 -.8205429110301D+03 -.7222758338154D+03 -.6359396653221D+03
 -.5600490444972D+03 -.4933115037804D+03 -.4346007495368D+03 -.3829339781687D+03
 -.3374525556091D+03 -.2974055106870D+03 -.2621353915498D+03 -.2310661138523D+03
 -.2036924937495D+03 -.1795712109307D+03 -.1583129894137D+03 -.1395758185501D+03
 -.1230590651723D+03 -.1084983512635D+03 -.9566109091806D+02 -.8434259643699D+02
 -.7436267680760D+02 -.6556266301432D+02 -.5780280403378D+02 -.5095998528863D+02
 -.4492572803449D+02 -.3960443383572D+02 -.3491184312494D+02 -.3077368097192D+02
 -.2712446672403D+02 -.2390646721987D+02 -.2106877589216D+02 -.1856650233400D+02
 -.1636005885475D+02 -.1441453224395D+02 -.1269913043094D+02 -.1118669500570D+02
 -.9853271679380D+01 -.8677731734129D+01 -.7641438359656D+01 -.6727952515396D+01
 -.5922773606196D+01 -.5213110827831D+01 -.4587681537144D+01 -.4036533438942D+01
 -.3550887765701D+01 -.3123000963460D+01 -.2746042693738D+01 -.2413988221990D+01
 -.2121523492463D+01 -.1863961391097D+01 -.1637167875804D+01 -.1437496809841D+01
 -.1261732471840D+01 -.1107038837361D+01 -.9709148338566D+00 -.8511548651451D+00
 -.7458139845948D+00 -.6531771694551D+00 -.5717322133427D+00 -.5001458108305D+00
 -.4372424582943D+00 -.3819858394547D+00 -.3334624031047D+00 -.2908668749586D+00
 -.2534894759472D+00 -.2207046460826D+00 -.1919610966658D+00 -.1667730344662D+00
 -.1447124199097D+00 -.1254021375444D+00 -.1085099713834D+00 -.9374329036084D-01
 -.8084436029175D-01 -.6958620856845D-01 -.5976897650908D-01 -.5121670193810D-01
 -.4377448134136D-01 -.3730596690623D-01 -.3169115902487D-01 -.2682445948699D-01
 -.2261295469076D-01 -.1897490182161D-01 -.1583839414285D-01 -.1314018436131D-01
 -.1082464751727D-01 -.8842867040192D-02 -.7151829543148D-02 -.5713715629508D-02
 -.4495275479857D-02 -.3467279299253D-02 -.2604033852919D-02 -.1882957319791D-02
 -.1284205561852D-02 -.7903436543605D-03 -.3860571563100D-03 -.5789812576550D-04
  .2059387008210D-03  .4158138549658D-03  .5808193597832D-03  .7089374595843D-03
  .8071864978788D-03  .8817595721253D-03  .9381636144686D-03  .9813705384948D-03
  .1016000024583D-02  .1046569792992D-02  .1077884397779D-02  .1115715350343D-02
  .1168134510657D-02  .1248468206030D-02  .1382906468484D-02  .1634699086183D-02
  .2212225831904D-02  .4471356085666D-02 -.9901875800768D-02 -.1791497660670D-02
 -.8371423756161D-03 -.4834414044597D-03 -.3073885721666D-03 -.2065391889150D-03
 -.1437512200552D-03 -.1024011526493D-03 -.7402798380649D-04 -.5393873448725D-04
 -.3936651408813D-04 -.2860543287569D-04 -.2056494231591D-04 -.1452204443698D-04
 -.9978198695864D-05 -.6576321379502D-05 -.4052302375596D-05 -.2205859856613D-05
 -.8822797934064D-06  .3949553786425D-07  .6549178001824D-06  .1039458816253D-05
  .1252683277312D-05  .1341310217712D-05  .1341604266365D-05  .1281310043171D-05
  .1181261060529D-05  .1056742093519D-05  .9186513753771D-06  .7744897612061D-06
  .6291937679424D-06  .4858249515340D-06  .3461270778430D-06  .2109632931838D-06
  .8064685438737D-07 -.4481978010421D-07 -.1655819647121D-06 -.2818304125862D-06
 -.3937443941001D-06 -.5014670923336D-06 -.6051015674832D-06 -.7047181030832D-06
 -.8003661624721D-06 -.8920865212302D-06 -.9799211424932D-06 -.1063919884309D-05
 -.1144144128239D-05 -.1220667944013D-05 -.1293577568551D-05 -.1362969912993D-05
 -.1428950641667D-05 -.1491632179183D-05 -.1551131845697D-05 -.1607570211227D-05
 -.1661069695026D-05 -.1711753402765D-05 -.1759744181311D-05 -.1805163868534D-05
 -.1848132724122D-05 -.1888768788749D-05 -.1924793680812D-05 -.1981157335801D-05
 -.2009010837097D-05 -.2039846788334D-05 -.2069022533385D-05 -.2096614490953D-05
 -.2122697242012D-05 -.2147343321162D-05 -.2170623056887D-05 -.2192604453623D-05
 -.2213353109633D-05 -.2232932165204D-05 -.2251402276544D-05 -.2268821611646D-05
BEQR-1S MV&DW POTENTIALS END
BQR-1S  MV&DW POTENTIALS START
       190
  .1823763931109D-03  .1946246137429D-03  .2076954129231D-03  .2216440342241D-03
  .2365294313231D-03  .2524145171689D-03  .2693664298824D-03  .2874568165151D-03
  .3067621358649D-03  .3273639816276D-03  .3493494272522D-03  .3728113939557D-03
  .3978490434530D-03  .4245681970635D-03  .4530817829629D-03  .4835103134729D-03
  .5159823944054D-03  .5506352686131D-03  .5876153960447D-03  .6270790727562D-03
  .6691930914943D-03  .7141354466436D-03  .7620960865184D-03  .8132777161760D-03
  .8678966541478D-03  .9261837467066D-03  .9883853435360D-03  .1054764338924D-02
  .1125601282881D-02  .1201195566885D-02  .1281866689251D-02  .1367955605492D-02
  .1459826169358D-02  .1557866670662D-02  .1662491476385D-02  .1774142781986D-02
  .1893292480342D-02  .2020444156196D-02  .2156135214549D-02  .2300939151998D-02
  .2455467980614D-02  .2620374814598D-02  .2796356630668D-02  .2984157213814D-02
  .3184570300902D-02  .3398442935394D-02  .3626679047360D-02  .3870243273936D-02
  .4130165036343D-02  .4407542890729D-02  .4703549171202D-02  .5019434944683D-02
  .5356535298528D-02  .5716274983256D-02  .6100174434244D-02  .6509856197821D-02
  .6947051788948D-02  .7413609009440D-02  .7911499757680D-02  .8442828362821D-02
  .9009840478712D-02  .9614932575119D-02  .1026066206638D-01  .1094975812030D-01
  .1168513319290D-01  .1246989533793D-01  .1330736134300D-01  .1420107074793D-01
  .1515480080457D-01  .1617258244134D-01  .1725871729987D-01  .1841779591586D-01
  .1965471712087D-01  .2097470874726D-01  .2238334972347D-01  .2388659365334D-01
  .2549079397896D-01  .2720273083337D-01  .2902963969673D-01  .3097924197698D-01
  .3305977764432D-01  .3528004005727D-01  .3764941312775D-01  .4017791098205D-01
  .4287622028540D-01  .4575574540904D-01  .4882865663069D-01  .5210794157200D-01
  .5560746009064D-01  .5934200285881D-01  .6332735387581D-01  .6758035717894D-01
  .7211898803462D-01  .7696242891060D-01  .8213115055047D-01  .8764699849299D-01
  .9353328540198D-01  .9981488959703D-01  .1065183602014D+00  .1136720293515D+00
  .1213061319425D+00  .1294529334156D+00  .1381468661275D+00  .1474246748783D+00
  .1573255722133D+00  .1678914041538D+00  .1791668270593D+00  .1911994963666D+00
  .2040402680053D+00  .2177434133397D+00  .2323668485457D+00  .2479723793932D+00
  .2646259624675D+00  .2823979839335D+00  .3013635570226D+00  .3216028394972D+00
  .3432013724370D+00  .3662504417772D+00  .3908474641272D+00  .4170963985010D+00
  .4451081856985D+00  .4750012171954D+00  .5069018355236D+00  .5409448682559D+00
  .5772741978536D+00  .6160433697836D+00  .6574162414766D+00  .7015676748685D+00
  .7486842754522D+00  .7989651809633D+00  .8526229030338D+00  .9098842253691D+00
  .9709911622475D+00  .1036201981390D+01  .1105792295525D+01  .1180056227264D+01
  .1259307652205D+01  .1343881525527D+01  .1434135297669D+01  .1530450425096D+01
  .1633233982514D+01  .1742920383370D+01  .1859973215897D+01  .1984887202457D+01
  .2118190290487D+01  .2260445883856D+01  .2412255224089D+01  .2574259931504D+01
  .2747144717016D+01  .2931640276053D+01  .3128526376838D+01  .3338635156066D+01
  .3562854635923D+01  .3802132477294D+01  .4057479985048D+01  .4329976382303D+01
  .4620773371744D+01  .4931100003291D+01  .5262267868653D+01  .5615676644760D+01
  .5992820009479D+01  .6395291954626D+01  .6824793522951D+01  .7283139997576D+01
  .7772268574267D+01  .8294246548966D+01  .8851280055197D+01  .9445723388255D+01
  .1008008895561D+02  .1075705789558D+02  .1147949140909D+02  .1225044285255D+02
  .1307317064280D+02  .1395115202878D+02  .1488809778807D+02  .1588796791045D+02
  .1695498833477D+02  .1809366880977D+02  .1930882195457D+02  .2060558359905D+02
  .2198943449043D+02  .2346622345756D+02  .2504219213095D+02  .2672400132291D+02
  .2851875917940D+02  .3043405122253D+02  .3247797241070D+02  .3465916135178D+02
  .3698683681414D+02  .3947083668963D+02
 2S
 -.1097739738253D+05 -.9533289500709D+04 -.8288731548100D+04 -.7214747298327D+04
 -.6286112153354D+04 -.5481813373167D+04 -.4784153276224D+04 -.4178172576954D+04
 -.3651183648871D+04 -.3192391077062D+04 -.2792581931642D+04 -.2443871891478D+04
 -.2139496268369D+04 -.1873637264857D+04 -.1641280586246D+04 -.1438095929684D+04
 -.1260336975410D+04 -.1104757373764D+04 -.9685399073792D+03 -.8492365510919D+03
 -.7447175834117D+03 -.6531282468798D+03 -.5728517292504D+03 -.5024774575561D+03
 -.4407738743201D+03 -.3866650083623D+03 -.3392102687454D+03 -.2975869849963D+03
 -.2610752940773D+03 -.2290450380960D+03 -.2009443891367D+03 -.1762899609687D+03
 -.1546582034783D+03 -.1356779057897D+03 -.1190236592994D+03 -.1044101531009D+03
 -.9158719222280D+02 -.8033534431658D+02 -.7046213336097D+02 -.6179870998061D+02
 -.5419693740759D+02 -.4752684020351D+02 -.4167436981188D+02 -.3653944699937D+02
 -.3203424641463D+02 -.2808169296395D+02 -.2461414357599D+02 -.2157223128740D+02
 -.1890385149992D+02 -.1656327279785D+02 -.1451035692542D+02 -.1270987444944D+02
 -.1113090431356D+02 -.9746306956855D+01 -.8532261951164D+01 -.7467862231774D+01
 -.6534757975368D+01 -.5716844036545D+01 -.4999985604365D+01 -.4371777397431D+01
 -.3821332291516D+01 -.3339095778002D+01 -.2916683093394D+01 -.2546736247556D+01
 -.2222798518070D+01 -.1939204275996D+01 -.1690982269622D+01 -.1473770721995D+01
 -.1283742799113D+01 -.1117541182088D+01 -.9722206314203D+00 -.8451975673863D+00
 -.7342058097628D+00 -.6372577247801D+00 -.5526101190340D+00 -.4787343007216D+00
 -.4142897993330D+00 -.3581012970589D+00 -.3091383797154D+00 -.2664977628633D+00
 -.2293876908380D+00 -.1971142433055D+00 -.1690693163661D+00 -.1447200736739D+00
 -.1235996880168D+00 -.1052992157387D+00 -.8946046564011D-01 -.7576974090755D-01
 -.6395234746789D-01 -.5376777520622D-01 -.4500546993142D-01 -.3748112402477D-01
 -.3103342252866D-01 -.2552118917063D-01 -.2082088360525D-01 -.1682440710022D-01
 -.1343717909434D-01 -.1057645159471D-01 -.8169832332016D-02 -.6153991015026D-02
 -.4473525967166D-02 -.3079970925523D-02 -.1930923856191D-02 -.9892812890480D-03
 -.2225628661690D-03  .3976885578580D-03  .8964460177385D-03  .1295692700883D-02
  .1614890397247D-02  .1871447590146D-02  .2081225573364D-02  .2259147253868D-02
  .2420028725375D-02  .2579877466405D-02  .2758199110288D-02  .2982646740285D-02
  .3299741230436D-02  .3804029951201D-02  .4738417461722D-02  .7009409494471D-02
  .1958045526170D-01 -.1368562039067D-01 -.4119723745056D-02 -.2101888117139D-02
 -.1255967103965D-02 -.8089099442868D-03 -.5436785092664D-03 -.3751055822811D-03
 -.2628894888448D-03 -.1856150952198D-03 -.1310246843881D-03 -.9174364043720D-04
 -.6315772617751D-04 -.4226541740472D-04 -.2703256576551D-04 -.1602532903232D-04
 -.8198504064953D-05 -.2769947260370D-05  .8568060447795D-06  .3142143444983D-05
  .4443438461134D-05  .5037999691915D-05  .5139702457943D-05  .4911587892364D-05
  .4475809103070D-05  .3921749521237D-05  .3312798074313D-05  .2692060770056D-05
  .2087170608014D-05  .1514296302302D-05  .9814238098651D-06  .4909780810936D-06
  .4185526370515D-07 -.3690591388085D-06 -.7458069561546D-06 -.1092629371401D-05
 -.1413518115107D-05 -.1711976155148D-05 -.1990926901359D-05 -.2252720916070D-05
 -.2499199529084D-05 -.2731784887674D-05 -.2951575251678D-05 -.3159432322113D-05
 -.3356053781642D-05 -.3542028913849D-05 -.3717878232116D-05 -.3884079713034D-05
 -.4041084823187D-05 -.4189327404883D-05 -.4329227974878D-05 -.4461195341384D-05
 -.4585626829744D-05 -.4702907908792D-05 -.4813411656679D-05 -.4917498285709D-05
 -.5015514895604D-05 -.5107796041906D-05 -.5194652340929D-05 -.5270955756461D-05
 -.5400629356839D-05 -.5446085724820D-05 -.5510959475490D-05 -.5572087726766D-05
 -.5629665665953D-05 -.5683881034961D-05 -.5734914027263D-05 -.5782937257570D-05
 -.5828115792434D-05 -.5870607232453D-05
 2P
 -.1999998344444D+05 -.1756116742164D+05 -.1541969993520D+05 -.1353932996316D+05
 -.1188822582977D+05 -.1043843645561D+05 -.9165418284490D+04 -.8047619880828D+04
 -.7066117167067D+04 -.6204293127968D+04 -.5447556560941D+04 -.4783095112513D+04
 -.4199658421265D+04 -.3687367697100D+04 -.3237548514078D+04 -.2842583986979D+04
 -.2495785846686D+04 -.2191281232418D+04 -.1923913284832D+04 -.1689153857592D+04
 -.1483026870087D+04 -.1302041004064D+04 -.1143130605116D+04 -.1003603788771D+04
 -.8810968729237D+03 -.7735343653552D+03 -.6790938291646D+03 -.5961750314417D+03
 -.5233728530301D+03 -.4594535008755D+03 -.4033336203482D+03 -.3540619540085D+03
 -.3108032363870D+03 -.2728240521866D+03 -.2394804185518D+03 -.2102068812246D+03
 -.1845069400308D+03 -.1619446416386D+03 -.1421371972886D+03 -.1247485005392D+03
 -.1094834353083D+03 -.9608287786348D+02 -.8431930816180D+02 -.7399295625226D+02
 -.6492841850982D+02 -.5697168642290D+02 -.4998753763848D+02 -.4385724510069D+02
 -.3847656550261D+02 -.3375397299879D+02 -.2960910827744D+02 -.2597141673621D+02
 -.2277895270665D+02 -.1997732948300D+02 -.1751879737885D+02 -.1536143420265D+02
 -.1346843444571D+02 -.1180748514746D+02 -.1035021787004D+02 -.9071727502438D+01
 -.7950149746120D+01 -.6966290127072D+01 -.6103298251771D+01 -.5346381790410D+01
 -.4682555343343D+01 -.4100419937256D+01 -.3589969416183D+01 -.3142420447831D+01
 -.2750063265522D+01 -.2406130617169D+01 -.2104682700991D+01 -.1840506138395D+01
 -.1609025272126D+01 -.1406224286559D+01 -.1228578830246D+01 -.1072995981786D+01
 -.9367615413935D+00 -.8174937546281D+00 -.7131026837073D+00 -.6217545374915D+00
 -.5418403552525D+00 -.4719485130931D+00 -.4108405866731D+00 -.3574301607681D+00
 -.3107642261395D+00 -.2700068480496D+00 -.2344248292732D+00 -.2033751242704D+00
 -.1762937908898D+00 -.1526862920461D+00 -.1321189827171D+00 -.1142116377165D+00
 -.9863089335375D-01 -.8508449159768D-01 -.7331622897010D-01 -.6310152434483D-01
 -.5424353031055D-01 -.4656972195613D-01 -.3992890500329D-01 -.3418859228311D-01
 -.2923270374810D-01 -.2495955063646D-01 -.2128006915284D-01 -.1811627318399D-01
 -.1539989920298D-01 -.1307121969834D-01 -.1107800425678D-01 -.9374609884511D-02
 -.7921184322754D-02 -.6682968044907D-02 -.5629682354442D-02 -.4734992571451D-02
 -.3976036728310D-02 -.3333011509335D-02 -.2788808363946D-02 -.2328693762585D-02
 -.1940028353007D-02 -.1612020117235D-02 -.1335506210633D-02 -.1102756626270D-02
 -.9072901446572D-03 -.7436904071156D-03 -.6074109832543D-03 -.4945685066887D-03
 -.4017442860640D-03 -.3258360273126D-03 -.2639982626755D-03 -.2136707755754D-03
 -.1726455011829D-03 -.1391086703301D-03 -.1116263566806D-03 -.8908453551766D-04
 -.7061451432420D-04 -.5552729646339D-04 -.4326460288433D-04 -.3336468004082D-04
 -.2543883476602D-04 -.1915544467296D-04 -.1422920605318D-04 -.1041399733689D-04
 -.7498103631354D-05 -.5300830517911D-05 -.3669794906676D-05 -.2478422569850D-05
 -.1623394107220D-05 -.1021950921747D-05 -.6090923485597D-06 -.3347631108226D-06
 -.1611525552496D-06 -.6021514186485D-07 -.1148965844985D-07 -.2560764494784D-09
 -.1603387092172D-07 -.5139943836372D-07 -.1010843131125D-06 -.1613088586827D-06
 -.2293054974406D-06 -.3029888498304D-06 -.3807354813811D-06 -.4612420848406D-06
 -.5434371555025D-06 -.6264271350294D-06 -.7094633167346D-06 -.7919203041263D-06
 -.8732803582434D-06 -.9531205285934D-06 -.1031101126674D-05 -.1106955044755D-05
 -.1180477861964D-05 -.1251518815502D-05 -.1319972705387D-05 -.1385772744265D-05
 -.1448884311448D-05 -.1509299537007D-05 -.1567032628679D-05 -.1622115853152D-05
 -.1674596089617D-05 -.1724531881349D-05 -.1771990920190D-05 -.1817047906361D-05
 -.1859782733809D-05 -.1900278957061D-05 -.1938622501753D-05 -.1974900585285D-05
 -.2009200818920D-05 -.2041610465806D-05 -.2072215833252D-05 -.2101101779877D-05
 -.2128351321318D-05 -.2154045319796D-05
BQR-1S  MV&DW POTENTIALS END
CQR-1S  MV&DW POTENTIALS START
       200
  .1519803275924D-03  .1621871781191D-03  .1730795107692D-03  .1847033618534D-03
  .1971078594359D-03  .2103454309741D-03  .2244720249020D-03  .2395473470960D-03
  .2556351132207D-03  .2728033180230D-03  .2911245227102D-03  .3106761616297D-03
  .3315408695442D-03  .3538068308863D-03  .3775681524690D-03  .4029252612274D-03
  .4299853286712D-03  .4588627238443D-03  .4896794967039D-03  .5225658939635D-03
  .5576609095786D-03  .5951128722030D-03  .6350800720987D-03  .6777314301467D-03
  .7232472117898D-03  .7718197889222D-03  .8236544529466D-03  .8789702824362D-03
  .9380010690673D-03  .1000996305737D-02  .1068222241043D-02  .1139963004577D-02
  .1216521807798D-02  .1298222225552D-02  .1385409563654D-02  .1478452318321D-02
  .1577743733618D-02  .1683703463497D-02  .1796779345457D-02  .1917449293332D-02
  .2046223317178D-02  .2183645678832D-02  .2330297192223D-02  .2486797678178D-02
  .2653808584085D-02  .2832035779495D-02  .3022232539467D-02  .3225202728280D-02
  .3441804196952D-02  .3672952408941D-02  .3919624309335D-02  .4182862453902D-02
  .4463779415440D-02  .4763562486047D-02  .5083478695203D-02  .5424880164851D-02
  .5789209824123D-02  .6178007507867D-02  .6592916464733D-02  .7035690302351D-02
  .7508200398926D-02  .8012443812599D-02  .8550551721987D-02  .9124798433582D-02
  .9737610994084D-02  .1039157944828D-01  .1108946778584D-01  .1183422562327D-01
  .1262900067047D-01  .1347715203445D-01  .1438226441656D-01  .1534816326321D-01
  .1637893093406D-01  .1747892395605D-01  .1865279143622D-01  .1990549471112D-01
  .2124232831580D-01  .2266894236114D-01  .2419136641394D-01  .2581603498082D-01
  .2754981470360D-01  .2940003338106D-01  .3137451093979D-01  .3348159248504D-01
  .3573018357116D-01  .3812978784087D-01  .4069054719224D-01  .4342328464333D-01
  .4633955007553D-01  .4945166904901D-01  .5277279489651D-01  .5631696431579D-01
  .6009915669551D-01  .6413535742550D-01  .6844262545872D-01  .7303916541083D-01
  .7794440450165D-01  .8317907466419D-01  .8876530016782D-01  .9472669112626D-01
  .1010884432854D+00  .1078774445130D+00  .1151223884396D+00  .1228538957319D+00
  .1311046435111D+00  .1399095034615D+00  .1493056892161D+00  .1593329136388D+00
  .1700335566711D+00  .1814528444497D+00  .1936390404547D+00  .2066436494943D+00
  .2205216353896D+00  .2353316532779D+00  .2511362975188D+00  .2680023662476D+00
  .2860011436975D+00  .3052087014810D+00  .3257062201060D+00  .3475803320842D+00
  .3709234880821D+00  .3958343476629D+00  .4224181962696D+00  .4507873902132D+00
  .4810618315447D+00  .5133694748197D+00  .5478468678972D+00  .5846397290571D+00
  .6239035628768D+00  .6658043174695D+00  .7105190858615D+00  .7582368544743D+00
  .8091593018729D+00  .8635016511581D+00  .9214935796040D+00  .9833801893865D+00
  .1049423043504D+01  .1119901271273D+01  .1195112748058D+01  .1275375354247D+01
  .1361028318761D+01  .1452433652809D+01  .1549977679914D+01  .1654072668714D+01
  .1765158575406D+01  .1883704903213D+01  .2010212686741D+01  .2145216609587D+01
  .2289287264180D+01  .2443033563377D+01  .2607105314031D+01  .2782195963389D+01
  .2969045529935D+01  .3168443731078D+01  .3381233320874D+01  .3608313651919D+01
  .3850644476454D+01  .4109250002743D+01  .4385223223878D+01  .4679730537300D+01
  .4994016674566D+01  .5329409962188D+01  .5687327935793D+01  .6069283331313D+01
  .6476890478556D+01  .6911872124139D+01  .7376066712664D+01  .7871436156879D+01
  .8400074129678D+01  .8964214912982D+01  .9566242840908D+01  .1020870237713D+02
  .1089430886900D+02  .1162596002398D+02  .1240674815672D+02  .1323997325871D+02
  .1412915694564D+02  .1507805734148D+02  .1609068496214D+02  .1717131966587D+02
  .1832452874202D+02  .1955518621464D+02  .2086849344246D+02  .2227000110242D+02
  .2376563264950D+02  .2536170935211D+02  .2706497700892D+02  .2888263445982D+02
  .3082236401178D+02  .3289236390803D+02  .3510138297778D+02  .3745875761310D+02
  .3997445122904D+02  .4265909637388D+02  .4552403966746D+02  .4858138975755D+02
  .5184406849690D+02  .5532586555726D+02  .5904149671129D+02  .6300666602861D+02
 2S
 -.2257341672990D+05 -.1962207454566D+05 -.1707487963160D+05 -.1487367719834D+05
 -.1296797150006D+05 -.1131553953962D+05 -.9880723689919D+04 -.8633306567646D+04
 -.7547597735693D+04 -.6601688931189D+04 -.5776844233127D+04 -.5056998608544D+04
 -.4428343834858D+04 -.3878985141318D+04 -.3398655318259D+04 -.2978475717727D+04
 -.2610755675216D+04 -.2288823544667D+04 -.2006883854549D+04 -.1759896137025D+04
 -.1543471813494D+04 -.1353786183655D+04 -.1187503097140D+04 -.1041710314611D+04
 -.9138639104567D+03 -.8017403490152D+03 -.7033950939048D+03 -.6171267959619D+03
 -.5414462578416D+03 -.4750494989910D+03 -.4167943486616D+03 -.3656800809798D+03
 -.3208296781317D+03 -.2814743680363D+03 -.2469401335972D+03 -.2166359334107D+03
 -.1900434100388D+03 -.1667078927401D+03 -.1462305277775D+03 -.1282613918417D+03
 -.1124934633395D+03 -.9865734279898D+02 -.8651662785125D+02 -.7586386050955D+02
 -.6651697506193D+02 -.5831618406983D+02 -.5112124792228D+02 -.4480908030522D+02
 -.3927164795411D+02 -.3441412828776D+02 -.3015329307886D+02 -.2641609029053D+02
 -.2313839967738D+02 -.2026394077906D+02 -.1774331458218D+02 -.1553316244171D+02
 -.1359542787901D+02 -.1189670864601D+02 -.1040768799811D+02 -.9102635477512D+01
 -.7958968700510D+01 -.6956868685865D+01 -.6078942176934D+01 -.5309925212441D+01
 -.4636422904467D+01 -.4046680999417D+01 -.3530385339000D+01 -.3078485813239D+01
 -.2683041814173D+01 -.2337086564549D+01 -.2034508016651D+01 -.1769944298002D+01
 -.1538691927802D+01 -.1336625244866D+01 -.1160125678231D+01 -.1006019658724D+01
 -.8715241164723D+00 -.7541986381688D+00 -.6519034709021D+00 -.5627626586785D+00
 -.4851316848656D+00 -.4175690703107D+00 -.3588114440529D+00 -.3077516625260D+00
 -.2634196049315D+00 -.2249653179296D+00 -.1916442227182D+00 -.1628041326271D+00
 -.1378738601333D+00 -.1163532192341D+00 -.9780425283954D-01 -.8184353568071D-01
 -.6813542151024D-01 -.5638611941379D-01 -.4633849811356D-01 -.3776752946605D-01
 -.3047629313273D-01 -.2429247380833D-01 -.1906529057258D-01 -.1466280500873D-01
 -.1096956079814D-01 -.7884512621187D-02 -.5319206392170D-02 -.3196176102618D-02
 -.1447524720989D-02 -.1365742997500D-04  .1157865568090D-02  .2113393438920D-02
  .2894212069430D-02  .3537598381158D-02  .4078001831055D-02  .4548526995942D-02
  .4983047896947D-02  .5419640276474D-02  .5906894103205D-02  .6517069689140D-02
  .7377632436646D-02  .8761682107448D-02  .1142620717157D-01  .1866379707342D-01
  .1052874991590D+00 -.2056150876365D-01 -.7916023062766D-02 -.4321474260286D-02
 -.2667571513855D-02 -.1747763141763D-02 -.1183513940593D-02 -.8167385387134D-03
 -.5690971147878D-03 -.3973070020751D-03 -.2757639288635D-03 -.1886293185214D-03
 -.1257492730682D-03 -.8038061154961D-04 -.4788106744667D-04 -.2494406982174D-04
 -.9144481509067D-05  .1337571555178D-05  .7889694933005D-05  .1157936319697D-04
  .1322949101742D-04  .1347165272662D-04  .1278537933374D-04  .1152854576639D-04
  .9961806973635D-05  .8268801308935D-05  .6573100825304D-05  .4952464337284D-05
  .3450724079254D-05  .2087534548555D-05  .8661809500204D-06 -.2203511656243D-06
 -.1184827831282D-05 -.2042510240798D-05 -.2808957334525D-05 -.3498663631960D-05
 -.4124327392149D-05 -.4696569880115D-05 -.5223955784034D-05 -.5713194882146D-05
 -.6169433849541D-05 -.6596573217318D-05 -.6997567042117D-05 -.7374681266860D-05
 -.7729700837422D-05 -.8064085482948D-05 -.8379080087732D-05 -.8675788448566D-05
 -.8955219752939D-05 -.9218316174203D-05 -.9465968312928D-05 -.9699023382730D-05
 -.9918289406146D-05 -.1012453741336D-04 -.1031850275262D-04 -.1050088606062D-04
 -.1067235410911D-04 -.1083354047830D-04 -.1098503496132D-04 -.1112786140626D-04
 -.1124899201773D-04  .3811893259287D-01 -.1153456601835D-04 -.1164063809465D-04
 -.1174045948264D-04 -.1183437260066D-04 -.1192270438416D-04 -.1200576654617D-04
 -.1208385590407D-04 -.1215725475876D-04 -.1222623131518D-04 -.1229104013367D-04
 -.1235192260421D-04 -.1240910743576D-04 -.1246281115493D-04 -.1251323860845D-04
 -.1256058346548D-04 -.1260502871557D-04 -.1264674716003D-04 -.1268590189389D-04
 2P
 -.4147411954417D+05 -.3641685505103D+05 -.3197618101914D+05 -.2807692679193D+05
 -.2465308570298D+05 -.2164669792209D+05 -.1900686948900D+05 -.1668891093252D+05
 -.1465358089716D+05 -.1286642197633D+05 -.1129717751142D+05 -.9919279486820D+04
 -.8709398853778D+04 -.7647050672651D+04 -.6714247390989D+04 -.5895194389321D+04
 -.5176022642034D+04 -.4544553968767D+04 -.3990094903357D+04 -.3503255691692D+04
 -.3075791355094D+04 -.2700462129323D+04 -.2370910917176D+04 -.2081555680628D+04
 -.1827494951293D+04 -.1604424859975D+04 -.1408566281071D+04 -.1236600858760D+04
 -.1085614832203D+04 -.9530497090269D+03 -.8366589522103D+03 -.7344699473138D+03
 -.6447506063232D+03 -.5659800428751D+03 -.4968228225264D+03 -.4361063522401D+03
 -.3828010263899D+03 -.3360027932394D+03 -.2949178468167D+03 -.2588491850789D+03
 -.2271848068477D+03 -.1993873477313D+03 -.1749849796074D+03 -.1535634196222D+03
 -.1347589134452D+03 -.1182520740049D+03 -.1037624714115D+03 -.9104388248820D+02
 -.7988011949466D+02 -.7008136743145D+02 -.6148096792191D+02 -.5393259522651D+02
 -.4730777658240D+02 -.4149371488911D+02 -.3639137687893D+02 -.3191381440435D+02
 -.2798469042100D+02 -.2453698470953D+02 -.2151185742212D+02 -.1885765121135D+02
 -.1652901504474D+02 -.1448613486834D+02 -.1269405809167D+02 -.1112210045439D+02
 -.9743325229875D+01 -.8534085945584D+01 -.7473624875235D+01 -.6543720502288D+01
 -.5728377983204D+01 -.5013557367071D+01 -.4386934967457D+01 -.3837693843705D+01
 -.3356339841818D+01 -.2934540077865D+01 -.2564981126932D+01 -.2241244514348D+01
 -.1957697398941D+01 -.1709396595401D+01 -.1492004308756D+01 -.1301714152387D+01
 -.1135186195163D+01 -.9894899363106D+00 -.8620542409098D+00 -.7506233868701D+00
 -.6532184778154D+00 -.5681035672464D+00 -.4937559192100D+00 -.4288399008355D+00
 -.3721840636745D+00 -.3227610248599D+00 -.2796698065816D+00 -.2421203340764D+00
 -.2094198289387D+00 -.1809608667130D+00 -.1562108959476D+00 -.1347030406726D+00
 -.1160280300070D+00 -.9982711768654D-01 -.8578587104246D-01 -.7362872363845D-01
 -.6311419864041D-01 -.5403072126304D-01 -.4619294850649D-01 -.3943855303567D-01
 -.3362540561500D-01 -.2862910713242D-01 -.2434082704787D-01 -.2066541019685D-01
 -.1751971836770D-01 -.1483117704439D-01 -.1253650124539D-01 -.1058057756940D-01
 -.8915482444706D-02 -.7499619230273D-02 -.6296959279225D-02 -.5276374373926D-02
 -.4411050051210D-02 -.3677971112927D-02 -.3057471670954D-02 -.2532841578205D-02
 -.2089977677855D-02 -.1717060629679D-02 -.1404227386949D-02 -.1143204838967D-02
 -.9268919462678D-03 -.7489416342808D-03 -.6034674572752D-03 -.4849890050346D-03
 -.3885865941897D-03 -.3100869301387D-03 -.2461187845407D-03 -.1940236923515D-03
 -.1517038524199D-03 -.1174791700635D-03 -.8997855183129D-04 -.6806317634822D-04
 -.5077333150370D-04 -.3729186246653D-04 -.2691927049300D-04 -.1905676664482D-04
 -.1319442135977D-04 -.8902237434191D-05 -.5822596430284D-05 -.3663089186382D-05
 -.2189222293892D-05 -.1216874096822D-05 -.6046392367696D-06 -.2463436887470D-06
 -.6404328100856D-07 -.1765877507676D-08 -.2015864701062D-07 -.9209380879851D-07
 -.1991952771673D-06 -.3291873499814D-06 -.4739358530222D-06 -.6280457417701D-06
 -.7878884998040D-06 -.9509500143692D-06 -.1115409440000D-05 -.1279878669081D-05
 -.1443248934647D-05 -.1604605319318D-05 -.1763181558281D-05 -.1918336688361D-05
 -.2069542042176D-05 -.2216372075913D-05 -.2358495856840D-05 -.2495668063424D-05
 -.2627719422507D-05 -.2754546949388D-05 -.2876104436989D-05 -.2992393549964D-05
 -.3103455740854D-05 -.3209365078089D-05 -.3310221985269D-05 -.3406147836245D-05
 -.3497280325320D-05 -.3583769523796D-05 -.3665774537311D-05 -.3743460684948D-05
 -.3816997130311D-05 -.3886554902567D-05 -.3952305253921D-05 -.4014418306216D-05
 -.4073061946142D-05 -.4128400933154D-05 -.4180596189602D-05 -.4229804245888D-05
 -.4276176817790D-05 -.4319860495429D-05 -.4360996526844D-05 -.4399720680713D-05
 -.4436163175607D-05 -.4470448664186D-05 -.4502696263063D-05 -.4533019619684D-05
 -.4561527009477D-05 -.4588321456847D-05 -.4613500875174D-05 -.4637158221060D-05
CQR-1S  MV&DW POTENTIALS END
NQR-1S  MV&DW POTENTIALS START
       200
  .1302688522221D-03  .1390175812450D-03  .1483538663736D-03  .1583171673029D-03
  .1689495938022D-03  .1802960836921D-03  .1924045927731D-03  .2053262975108D-03
  .2191158113321D-03  .2338314154483D-03  .2495353051802D-03  .2662938528255D-03
  .2841778881807D-03  .3032629979025D-03  .3236298449735D-03  .3453645096235D-03
  .3685588531467D-03  .3933109061522D-03  .4197252828891D-03  .4479136233973D-03
  .4779950653530D-03  .5100967476026D-03  .5443543475132D-03  .5809126544114D-03
  .6199261815341D-03  .6615598190762D-03  .7059895310971D-03  .7534030992311D-03
  .8040009163434D-03  .8579968334891D-03  .9156190637509D-03  .9771111467800D-03
  .1042732978113D-02  .1112761907616D-02  .1187493911703D-02  .1267244844276D-02
  .1352351771673D-02  .1443174397283D-02  .1540096581820D-02  .1643527965713D-02
  .1753905700438D-02  .1871696296142D-02  .1997397593334D-02  .2131540867010D-02
  .2274693072073D-02  .2427459239567D-02  .2590485033829D-02  .2764459481383D-02
  .2950117883102D-02  .3148244921949D-02  .3359677979430D-02  .3585310674774D-02
  .3826096641805D-02  .4083053559469D-02  .4357267453031D-02  .4649897284158D-02
  .4962179849248D-02  .5295435006743D-02  .5651071255486D-02  .6030591687730D-02
  .6435600341937D-02  .6867808982228D-02  .7329044333131D-02  .7821255800213D-02
  .8346523709214D-02  .8907068098525D-02  .9505258102145D-02  .1014362196280D-01
  .1082485771755D-01  .1155184460096D-01  .1232765521420D-01  .1315556851133D-01
  .1403908365777D-01  .1498193481947D-01  .1598810694533D-01  .1706185260953D-01
  .1820770998497D-01  .1943052202384D-01  .2073545692623D-01  .2212802998356D-01
  .2361412688880D-01  .2520002861234D-01  .2689243794839D-01  .2869850784432D-01
  .3062587163243D-01  .3268267529218D-01  .3487761187906D-01  .3721995826571D-01
  .3971961435046D-01  .4238714489915D-01  .4523382419701D-01  .4827168369924D-01
  .5151356288187D-01  .5497316350757D-01  .5866510753605D-01  .6260499892356D-01
  .6680948957284D-01  .7129634971216D-01  .7608454300099D-01  .8119430667965D-01
  .8664723710181D-01  .9246638101115D-01  .9867633294820D-01  .1053033391988D+00
  .1123754087238D+00  .1199224315385D+00  .1279763050424D+00  .1365710688333D+00
  .1457430485753D+00  .1555310095284D+00  .1659763203898D+00  .1771231281380D+00
  .1890185446196D+00  .2017128456668D+00  .2152596835875D+00  .2297163139265D+00
  .2451438374550D+00  .2616074584123D+00  .2791767600909D+00  .2979259989293D+00
  .3179344183561D+00  .3392865837110D+00  .3620727396597D+00  .3863891916114D+00
  .4123387127526D+00  .4400309784169D+00  .4695830296262D+00  .5011197677632D+00
  .5347744824659D+00  .5706894149738D+00  .6090163593098D+00  .6499173038351D+00
  .6935651158911D+00  .7401442724212D+00  .7898516396606D+00  .8428973051884D+00
  .8995054658610D+00  .9599153753764D+00  .1024382355478D+01  .1093178875068D+01
  .1166595701795D+01  .1244943130979D+01  .1328552297069D+01  .1417776573184D+01
  .1512993064633D+01  .1614604202754D+01  .1723039445778D+01  .1838757093932D+01
  .1962246226440D+01  .2094028768609D+01  .2234661697741D+01  .2384739397190D+01
  .2544896168516D+01  .2715808912353D+01  .2898199989320D+01  .3092840273073D+01
  .3300552408389D+01  .3522214288065D+01  .3758762763324D+01  .4011197603400D+01
  .4280585721057D+01  .4568065681876D+01  .4874852516394D+01  .5202242855411D+01
  .5551620410190D+01  .5924461820690D+01  .6322342896569D+01  .6746945277325D+01
  .7200063539724D+01  .7683612782556D+01  .8199636720778D+01  .8750316323250D+01
  .9337979030573D+01  .9965108591986D+01  .1063435556291D+02  .1134854850747D+02
  .1211070595340D+02  .1292404914984D+02  .1379201568184D+02  .1471827399932D+02
  .1570673892173D+02  .1676158818397D+02  .1788728009354D+02  .1908857237351D+02
  .2037054227100D+02  .2173860801610D+02  .2319855172193D+02  .2475654382270D+02
  .2641916915295D+02  .2819345477831D+02  .3008689969524D+02  .3210750652552D+02
  .3426381533918D+02  .3656493974904D+02  .3902060542925D+02  .4164119122076D+02
  .4443777299734D+02  .4742217047765D+02  .5060699718111D+02  .5400571373881D+02
 2S
 -.4141891463079D+05 -.3604244822557D+05 -.3139423318887D+05 -.2737077942369D+05
 -.2388232165523D+05 -.2085348147302D+05 -.1822039292771D+05 -.1592876679789D+05
 -.1393231345102D+05 -.1219145170967D+05 -.1067224743254D+05 -.9345537216145D+04
 -.8186201885203D+04 -.7172561681035D+04 -.6285870736616D+04 -.5509892893667D+04
 -.4830544440638D+04 -.4235592137676D+04 -.3714397106860D+04 -.3257696926879D+04
 -.2857419677805D+04 -.2506524808946D+04 -.2198866609256D+04 -.1929076791703D+04
 -.1692463295984D+04 -.1484922896401D+04 -.1302865595736D+04 -.1143149109136D+04
 -.1003022008127D+04 -.8800743149940D+03 -.7721945205161D+03 -.6775321504551D+03
 -.5944651337761D+03 -.5215713328064D+03 -.4576036859922D+03 -.4014684904748D+03
 -.3522064167501D+03 -.3089759030852D+03 -.2710386247151D+03 -.2377467734216D+03
 -.2085319179377D+03 -.1828952456331D+03 -.1603990118141D+03 -.1406590453496D+03
 -.1233381787018D+03 -.1081404872432D+03 -.9480623732194D+02 -.8310745522799D+02
 -.7284404024384D+02 -.6384035458784D+02 -.5594223144249D+02 -.4901434958199D+02
 -.4293792950666D+02 -.3760871157906D+02 -.3293518154264D+02 -.2883701307789D+02
 -.2524370079210D+02 -.2209336031379D+02 -.1933167503237D+02 -.1691097153647D+02
 -.1478940800739D+02 -.1293026175491D+02 -.1130130377538D+02 -.9874249696695D+01
 -.8624277776574D+01 -.7529605762645D+01 -.6571119424711D+01 -.5732046448643D+01
 -.4997670152642D+01 -.4355078163481D+01 -.3792941784360D+01 -.3301322307356D+01
 -.2871500981003D+01 -.2495829745241D+01 -.2167600198476D+01 -.1880928571025D+01
 -.1630654750876D+01 -.1412253646216D+01 -.1221757378565D+01 -.1055686984175D+01
 -.9109924627367D+00 -.7850001541610D+00 -.6753665485760D+00 -.5800377439312D+00
 -.4972138615014D+00 -.4253178137956D+00 -.3629678933145D+00 -.3089537155265D+00
 -.2622151064399D+00 -.2218235751988D+00 -.1869660560788D+00 -.1569306428337D+00
 -.1310940721991D+00 -.1089107430653D+00 -.8990308387265D-01 -.7365310359742D-01
 -.5979498165036D-01 -.4800856942475D-01 -.3801369137188D-01 -.2956514656896D-01
 -.2244832294248D-01 -.1647534572312D-01 -.1148168935879D-01 -.7323187902925D-02
 -.3873382536835D-02 -.1021145757230D-02  .1331481360521D-02  .3271311897025D-02
  .4875989402159D-02  .6216052332686D-02  .7357302515761D-02  .8363859709918D-02
  .9302640952653D-02  .1025082218317D-01  .1130989047383D-01  .1263564070987D-01
  .1451213929037D-01  .1757229115327D-01  .2367737156994D-01  .4205067096491D-01
  .9298355920081D+01 -.3252283160242D-01 -.1397928764917D-01 -.7924490836484D-02
 -.4990930037838D-02 -.3309269123700D-02 -.2255201510764D-02 -.1558879265947D-02
 -.1083295500354D-02 -.7510863504693D-03 -.5154609702408D-03 -.3468133983422D-03
 -.2257538775797D-03 -.1391736108920D-03 -.7792905679913D-04 -.3545171250654D-04
 -.6900363387035D-05  .1136560381345D-04  .2212131190799D-04  .2749613982075D-04
  .2912332765048D-04  .2824646802721D-04  .2579906904271D-04  .2246682190767D-04
  .1873821675039D-04  .1494672969307D-04  .1130636856819D-04  .7941557781009D-05
  .4911938642693D-05  .2232506962138D-05 -.1105044015710D-06 -.2147542530435D-05
 -.3916938919121D-05 -.5458854647716D-05 -.6811418713280D-05 -.8008544152561D-05
 -.9078963438658D-05 -.1004609559028D-04 -.1092843291868D-04 -.1174020824727D-04
 -.1249216932178D-04 -.1319234362621D-04 -.1384672299515D-04 -.1445983319196D-04
 -.1503517952667D-04 -.1557557659075D-04 -.1608337966910D-04 -.1656063900421D-04
 -.1700919760952D-04 -.1743075042445D-04 -.1782687867437D-04 -.1819906934525D-04
 -.1854872630758D-04 -.1887717706119D-04 -.1918567732201D-04 -.1947541457133D-04
 -.1974751102916D-04 -.2000302589131D-04 -.2024294781686D-04 -.2046866531823D-04
 -.2065889886088D-04  .5033299038567D-02 -.2111114886012D-04 -.2127851519870D-04
 -.2143592344544D-04 -.2158393153090D-04 -.2172307042518D-04 -.2185384488145D-04
 -.2197673424223D-04 -.2209219329123D-04 -.2220065313832D-04 -.2230252212483D-04
 -.2239818674029D-04 -.2248801254115D-04 -.2257234506565D-04 -.2265151073777D-04
 -.2272581775668D-04 -.2279555696669D-04 -.2286100270556D-04 -.2292241362847D-04
 2P
 -.7683871860769D+05 -.6746933600557D+05 -.5924227442342D+05 -.5201827024261D+05
 -.4567503731153D+05 -.4010519727728D+05 -.3521446222180D+05 -.3092003884517D+05
 -.2714922718830D+05 -.2383819017966D+05 -.2093087318176D+05 -.1837805525146D+05
 -.1613651605765D+05 -.1416830435696D+05 -.1244009564699D+05 -.1092262812588D+05
 -.9590207412248D+04 -.8420271643099D+04 -.7393009589464D+04 -.6491025326440D+04
 -.5699043782448D+04 -.5003652184278D+04 -.4393073021988D+04 -.3856964691212D+04
 -.3386246438801D+04 -.2972944649084D+04 -.2610057869177D+04 -.2291438288927D+04
 -.2011687669552D+04 -.1766065959594D+04 -.1550411051487D+04 -.1361068320646D+04
 -.1194828754483D+04 -.1048874624198D+04 -.9207317798054D+03 -.8082277609708D+03
 -.7094550146656D+03 -.6227385970731D+03 -.5466078130729D+03 -.4797713132789D+03
 -.4210952271206D+03 -.3695839618446D+03 -.3243633424323D+03 -.2846658070527D+03
 -.2498174074552D+03 -.2192263942627D+03 -.1923731939436D+03 -.1688016078014D+03
 -.1481110840018D+03 -.1299499318193D+03 -.1140093632325D+03 -.1000182610037D+03
 -.8773858467198D+02 -.7696133668752D+02 -.6750302039718D+02 -.5920252991534D+02
 -.5191841922508D+02 -.4552650427423D+02 -.3991775746712D+02 -.3499645890263D+02
 -.3067857305522D+02 -.2689032341204D+02 -.2356694093001D+02 -.2065156511965D+02
 -.1809427914607D+02 -.1585126260620D+02 -.1388404763395D+02 -.1215886573397D+02
 -.1064607428092D+02 -.9319652970082D+01 -.8156761689241D+01 -.7137352322024D+01
 -.6243827905960D+01 -.5460743370365D+01 -.4774542783341D+01 -.4173328655380D+01
 -.3646659389996D+01 -.3185371448474D+01 -.2781423214458D+01 -.2427757911607D+01
 -.2118183250329D+01 -.1847265762986D+01 -.1610238035827D+01 -.1402917264397D+01
 -.1221633751076D+01 -.1063168131877D+01 -.9246962675780D+00 -.8037408641922D+00
 -.6981290018560D+00 -.6059548514016D+00 -.5255469458403D+00 -.4554394512380D+00
 -.3943469492889D+00 -.3411423034531D+00 -.2948372328164D+00 -.2545652637353D+00
 -.2195667696303D+00 -.1891758446493D+00 -.1628087879553D+00 -.1399540026017D+00
 -.1201631368198D+00 -.1030433164496D+00 -.8825033556325D-01 -.7548268836635D-01
 -.6447633950621D-01 -.5500014220989D-01 -.4685182444830D-01 -.3985447277406D-01
 -.3385345179142D-01 -.2871370455158D-01 -.2431738566974D-01 -.2056178476589D-01
 -.1735750305461D-01 -.1462685065724D-01 -.1230243657182D-01 -.1032592728176D-01
 -.8646953733514D-02 -.7222149768116D-02 -.6014307678726D-02 -.4991637465325D-02
 -.4127113795973D-02 -.3397886317254D-02 -.2784714443255D-02 -.2271375906062D-02
 -.1844015356674D-02 -.1490475850385D-02 -.1199766981157D-02 -.9618422569029D-03
 -.7676890992907D-03 -.6095230352188D-03 -.4808651126246D-03 -.3764460218431D-03
 -.2920094786175D-03 -.2240997723707D-03 -.1698785730173D-03 -.1269831397406D-03
 -.9342285782079D-04 -.6750629272131D-04 -.4779056137245D-04 -.3304597459173D-04
 -.2223046037197D-04 -.1446975667760D-04 -.9040591125879D-05 -.5355033038386D-05
 -.2944972689233D-05 -.1446315239261D-05 -.5829896884079D-06 -.1512352417708D-06
 -.4796986960133D-08 -.4163320026824D-07 -.1925559410692D-06 -.4119787829494D-06
 -.6707128776396D-06 -.9505867851312D-06 -.1240580806783D-05 -.1534150035918D-05
 -.1827437914202D-05 -.2118130664505D-05 -.2404756158293D-05 -.2686279467025D-05
 -.2961887922682D-05 -.3230890528435D-05 -.3492680977772D-05 -.3746731671992D-05
 -.3992599199509D-05 -.4229930782748D-05 -.4458467085794D-05 -.4678040271903D-05
 -.4888567990614D-05 -.5090044642961D-05 -.5282531296393D-05 -.5466145338958D-05
 -.5641050601526D-05 -.5807448352835D-05 -.5965569335824D-05 -.6115666862533D-05
 -.6258010905068D-05 -.6392883083894D-05 -.6520572447243D-05 -.6641371938492D-05
 -.6755575459082D-05 -.6863475443946D-05 -.6965360877990D-05 -.7061515690149D-05
 -.7152217471043D-05 -.7237736466149D-05 -.7318334803992D-05 -.7394265923054D-05
 -.7465774167177D-05 -.7533094522119D-05 -.7596452470877D-05 -.7656063947245D-05
 -.7712135371158D-05 -.7764863750464D-05 -.7814436837174D-05 -.7861033326730D-05
 -.7904823091763D-05 -.7945967441813D-05 -.7984619403035D-05 -.8020924011594D-05
NQR-1S  MV&DW POTENTIALS END
OQR-1S  MV&DW POTENTIALS START
       200
  .1139852456943D-03  .1216403835893D-03  .1298096330769D-03  .1385275213900D-03
  .1478308945770D-03  .1577590732306D-03  .1683540186765D-03  .1796605103220D-03
  .1917263349156D-03  .2046024885172D-03  .2183433920326D-03  .2330071212223D-03
  .2486556521581D-03  .2653551231647D-03  .2831761143518D-03  .3021939459206D-03
  .3224889965034D-03  .3441470428832D-03  .3672596225279D-03  .3919244204726D-03
  .4182456821839D-03  .4463346541523D-03  .4763100540740D-03  .5082985726100D-03
  .5424354088424D-03  .5788648416917D-03  .6177408397100D-03  .6592277118272D-03
  .7035008018005D-03  .7507472293029D-03  .8011666807820D-03  .8549722534325D-03
  .9123913558486D-03  .9736666691639D-03  .1039057172740D-02  .1108839238741D-02
  .1183307800214D-02  .1262777597622D-02  .1347584509093D-02  .1438086969999D-02
  .1534667487884D-02  .1637734259124D-02  .1747722894167D-02  .1865098258633D-02
  .1990356438064D-02  .2124026834621D-02  .2266674404600D-02  .2418902046210D-02
  .2581353147714D-02  .2754714306706D-02  .2939718232001D-02  .3137146840427D-02
  .3347834561580D-02  .3572671864535D-02  .3812609021402D-02  .4068660123638D-02
  .4341907368092D-02  .4633505630900D-02  .4944687348550D-02  .5276767726763D-02
  .5631150299195D-02  .6009332859450D-02  .6412913791490D-02  .6843598825186D-02
  .7303208245563D-02  .7793684586209D-02  .8317100839377D-02  .8875669217455D-02
  .9471750502856D-02  .1010786402584D-01  .1078669831242D-01  .1151112244741D-01
  .1228419820055D-01  .1310919296704D-01  .1398959357717D-01  .1492912103334D-01
  .1593174623685D-01  .1700170677086D-01  .1814352481045D-01  .1936202623561D-01
  .2066236102770D-01  .2205002503579D-01  .2353088320484D-01  .2511119436378D-01
  .2679763767837D-01  .2859734088065D-01  .3051791039418D-01  .3256746348250D-01
  .3475466255665D-01  .3708875178676D-01  .3957959617238D-01  .4223772323684D-01
  .4507436752164D-01  .4810151806912D-01  .5133196909404D-01  .5477937405812D-01
  .5845830337624D-01  .6238430599814D-01  .6657397512586D-01  .7104501834469D-01
  .7581633246408D-01  .8090808338476D-01  .8634179132967D-01  .9214042179895D-01
  .9832848263332D-01  .1049321275962D+00  .1119792669121D+00  .1194996852291D+00
  .1275251675033D+00  .1360896333373D+00  .1452292803410D+00  .1549827371208D+00
  .1653912265422D+00  .1764987399585D+00  .1883522231391D+00  .2010017746857D+00
  .2145008577731D+00  .2289065261107D+00  .2442796650795D+00  .2606852490631D+00
  .2781926160616D+00  .2968757607471D+00  .3168136472022D+00  .3380905426599D+00
  .3607963736585D+00  .3850271061148D+00  .4108851509229D+00  .4384797967928D+00
  .4679276721576D+00  .4993532381021D+00  .5328893143961D+00  .5686776408557D+00
  .6068694764047D+00  .6476262383686D+00  .6911201847030D+00  .7375351420399D+00
  .7870672826283D+00  .8399259534544D+00  .8963345610433D+00  .9565315156848D+00
  .1020771239071D+01  .1089325239606D+01  .1162483259935D+01  .1240554501536D+01
  .1323868931554D+01  .1412778677410D+01  .1507659515056D+01  .1608912457190D+01
  .1716965448135D+01  .1832275172533D+01  .1955328985524D+01  .2086646972541D+01
  .2226784147452D+01  .2376332798309D+01  .2535924990655D+01  .2706235238939D+01
  .2887983357340D+01  .3081937502057D+01  .3288917417908D+01  .3509797902975D+01
  .3745512505925D+01  .3997057471641D+01  .4265495951844D+01  .4551962498485D+01
  .4857667858917D+01  .5183904093104D+01  .5532050034498D+01  .5903577117659D+01
  .6300055597258D+01  .6723161184736D+01  .7174682130681D+01  .7656526782844D+01
  .8170731651751D+01  .8719470017988D+01  .9305061117543D+01  .9929979944033D+01
  .1059686770923D+02  .1130854300611D+02  .1206801372161D+02  .1287848974940D+02
  .1374339655652D+02  .1466638966098D+02  .1565137008185D+02  .1670250082682D+02
  .1782422448712D+02  .1902128201408D+02  .2029873275669D+02  .2166197584486D+02
  .2311677300884D+02  .2466927293102D+02  .2632603723334D+02  .2809406820983D+02
  .2998083842178D+02  .3199432228041D+02  .3414302975059D+02  .3643604231817D+02
  .3888305137267D+02  .4149439916794D+02  .4428112253347D+02  .4725499952146D+02
 2S
 -.6999835910620D+05 -.6097630789679D+05 -.5316291565923D+05 -.4638872710190D+05
 -.4050679405783D+05 -.3539318643671D+05 -.3094254658937D+05 -.2706503254218D+05
 -.2368381616405D+05 -.2073302566477D+05 -.1815604649424D+05 -.1590411234396D+05
 -.1393513194378D+05 -.1221270830881D+05 -.1070531571017D+05 -.9385606444059D+04
 -.8229824856523D+04 -.7217310356991D+04 -.6330074560878D+04 -.5552440425511D+04
 -.4870733429152D+04 -.4273016601773D+04 -.3748862637166D+04 -.3289157467625D+04
 -.2885930619511D+04 -.2532208433267D+04 -.2221886858913D+04 -.1949621054557D+04
 -.1710729442428D+04 -.1501110231319D+04 -.1317168709691D+04 -.1155753860909D+04
 -.1014103059744D+04 -.8897937844988D+03 -.7807014274070D+03 -.6849624119585D+03
 -.6009419331736D+03 -.5272057286435D+03 -.4624953668253D+03 -.4057066066933D+03
 -.3558704410689D+03 -.3121364862100D+03 -.2737584236868D+03 -.2400812382004D+03
 -.2105300276413D+03 -.1846001900288D+03 -.1618488166231D+03 -.1418871419567D+03
 -.1243739202275D+03 -.1090096137986D+03 -.9553129377852D+02 -.8370816508096D+02
 -.7333763922187D+02 -.6424188760598D+02 -.5626481635959D+02 -.4926941103541D+02
 -.4313540587793D+02 -.3775723791155D+02 -.3304225099565D+02 -.2890911926970D+02
 -.2528646316137D+02 -.2211163441891D+02 -.1932964951191D+02 -.1689225327326D+02
 -.1475709687287D+02 -.1288701615988D+02 -.1124939811670D+02 -.9815624666630D+01
 -.8560584391120D+01 -.7462243866293D+01 -.6501271341027D+01 -.5660706367417D+01
 -.4925669774560D+01 -.4283109061338D+01 -.3721574884875D+01 -.3231024849115D+01
 -.2802651261094D+01 -.2428729929226D+01 -.2102487434911D+01 -.1817984622274D+01
 -.1570014326001D+01 -.1354011598926D+01 -.1165974913122D+01 -.1002396994558D+01
 -.8602041149320D+00 -.7367028078645D+00 -.6295331027940D+00 -.5366274805703D+00
 -.4561748519995D+00 -.3865889459278D+00 -.3264805683991D+00 -.2746332601978D+00
 -.2299819378233D+00 -.1915941535903D+00 -.1586536549557D+00 -.1304459620720D+00
 -.1063457165901D+00 -.8580558441719D-01 -.6834652093959D-01 -.5354922950595D-01
 -.4104666300078D-01 -.3051743428817D-01 -.2168001416586D-01 -.1428760502331D-01
 -.8123584048395D-02 -.2997410342290D-02  .1259116731810D-02  .4795379885660D-02
  .7745419486675D-02  .1023161563926D-01  .1236899047315D-01  .1427087369895D-01
  .1605738685037D-01  .1786985450185D-01  .1989844786479D-01  .2244233898838D-01
  .2606151916970D-01  .3204465551304D-01  .4438068933918D-01  .8542160223562D-01
 -.4772990586407D+00 -.5004877304402D-01 -.2299289048203D-01 -.1336530881837D-01
 -.8537526864369D-02 -.5713539589817D-02 -.3917280439574D-02 -.2716567287750D-02
 -.1888668641831D-02 -.1306302265503D-02 -.8914872009699D-03 -.5941372424760D-03
 -.3809252998547D-03 -.2289877300107D-03 -.1221856164487D-03 -.4882382812410D-04
 -.2335671880800D-06  .3012469966106D-04  .4724166351239D-04  .5494540899002D-04
  .5616759001599D-04  .5313461913280D-04  .4751131293114D-04  .4051363334427D-04
  .3300048467766D-04  .2555037394172D-04  .1852618420436D-04  .1212980358430D-04
  .6447564563233D-05  .1487147912916D-05 -.2793395660395D-05 -.6463714227531D-05
 -.9605364826434D-05 -.1230111630898D-04 -.1462828226445D-04 -.1665508845931D-04
 -.1843920303334D-04 -.2002770975843D-04 -.2145796091145D-04 -.2275889056467D-04
 -.2395249293946D-04 -.2505527120236D-04 -.2607954048135D-04 -.2703452732260D-04
 -.2792724922123D-04 -.2876318514249D-04 -.2954676387708D-04 -.3028170422833D-04
 -.3097124185595D-04 -.3161827430365D-04 -.3222545024570D-04 -.3279522280513D-04
 -.3332988100262D-04 -.3383156858974D-04 -.3430229594093D-04 -.3474394824880D-04
 -.3515829167055D-04 -.3554697706797D-04 -.3591150618843D-04 -.3625414824059D-04
 -.3655072256286D-04  .7580078464033D+01 -.3722203043968D-04 -.3747593729894D-04
 -.3771461138704D-04 -.3793892231345D-04 -.3814969546996D-04 -.3834771359285D-04
 -.3853371836559D-04 -.3870841204274D-04 -.3887245908231D-04 -.3902648777186D-04
 -.3917109184007D-04 -.3930683204285D-04 -.3943423771902D-04 -.3955380830773D-04
 -.3966601482504D-04 -.3977130129421D-04 -.3987008612891D-04 -.3996276346659D-04
 2P
 -.1310874500774D+06 -.1151034458608D+06 -.1010682066882D+06 -.8874415397860D+05
 -.7792267202258D+05 -.6842057721615D+05 -.6007701771433D+05 -.5275075103478D+05
 -.4631775353740D+05 -.4066912132231D+05 -.3570922702094D+05 -.3135410128540D+05
 -.2753001158431D+05 -.2417221425224D+05 -.2122385867234D+05 -.1863502504622D+05
 -.1636187946599D+05 -.1436593198885D+05 -.1261338515739D+05 -.1107456193995D+05
 -.9723403409185D+04 -.8537027657286D+04 -.7495342482847D+04 -.6580705294198D+04
 -.5777624473265D+04 -.5072497145633D+04 -.4453378918674D+04 -.3909781690624D+04
 -.3432496108551D+04 -.3013435670369D+04 -.2645499832324D+04 -.2322453805045D+04
 -.2038823003709D+04 -.1789800365868D+04 -.1571164968274D+04 -.1379210565251D+04
 -.1210682839118D+04 -.1062724300569D+04 -.9328259064262D+03 -.8187845758518D+03
 -.7186658859462D+03 -.6307713153118D+03 -.5536094811412D+03 -.4858708829790D+03
 -.4264057256545D+03 -.3742044460019D+03 -.3283806137426D+03 -.2881559170939D+03
 -.2528469789462D+03 -.2218537804419D+03 -.1946494959890D+03 -.1707715676373D+03
 -.1498138677192D+03 -.1314198170797D+03 -.1152763423926D+03 -.1011085702648D+03
 -.8867516830015D+02 -.7776425424729D+02 -.6818980396960D+02 -.5978849742132D+02
 -.5241694922665D+02 -.4594927697027D+02 -.4027496602353D+02 -.3529699475135D+02
 -.3093018835206D+02 -.2709977345331D+02 -.2374010898575D+02 -.2079357184055D+02
 -.1820957843722D+02 -.1594372562937D+02 -.1395703639659D+02 -.1221529754455D+02
 -.1068847819365D+02 -.9350219204378D+01 -.8177384888498D+01 -.7149669410434D+01
 -.6249251208843D+01 -.5460489581976D+01 -.4769658294377D+01 -.4164711689532D+01
 -.3635079343698D+01 -.3171485779589D+01 -.2765792183151D+01 -.2410857439427D+01
 -.2100416130852D+01 -.1828971428755D+01 -.1591701061243D+01 -.1384374762272D+01
 -.1203281801331D+01 -.1045167364082D+01 -.9071767043199D+00 -.7868061194585D+00
 -.6818599174031D+00 -.5904126443095D+00 -.5107759319220D+00 -.4414694015075D+00
 -.3811951301543D+00 -.3288152455452D+00 -.2833322682641D+00 -.2438718671435D+00
 -.2096677338916D+00 -.1800483189431D+00 -.1544252017641D+00 -.1322828962475D+00
 -.1131699158326D+00 -.9669094400290D-01 -.8249997422812D-01 -.7029429956624D-01
 -.5980924632652D-01 -.5081355869370D-01 -.4310535226483D-01 -.3650856427638D-01
 -.3086983709163D-01 -.2605577944839D-01 -.2195055717949D-01 -.1845377172138D-01
 -.1547859075891D-01 -.1295010069896D-01 -.1080385487384D-01 -.8984593371764D-02
 -.7445108230874D-02 -.6145219165141D-02 -.5050810746710D-02 -.4132873596163D-02
 -.3366518509001D-02 -.2730020407392D-02 -.2204059805160D-02 -.1771331475061D-02
 -.1416508720847D-02 -.1126345152321D-02 -.8896824978985D-03 -.6972863296236D-03
 -.5415658592239D-03 -.4162661502869D-03 -.3161922131485D-03 -.2369881706576D-03
 -.1749716300693D-03 -.1270133879320D-03 -.9045042266146D-04 -.6302155961874D-04
 -.4281777644041D-04 -.2824165208915D-04 -.1797244931572D-04 -.1093463786756D-04
 -.6268435483530D-05 -.3301425204188D-05 -.1520760921279D-05 -.5460096441542D-06
 -.1032063021767D-06 -.1017664736762D-08 -.1098969097397D-06 -.3447978877872D-06
 -.6515739126675D-06 -.9967875679231D-06 -.1360408014674D-05 -.1730783358617D-05
 -.2101305279590D-05 -.2468275188610D-05 -.2829591043538D-05 -.3183975607028D-05
 -.3530549722828D-05 -.3868616748196D-05 -.4197569447077D-05 -.4516862352114D-05
 -.4826014439845D-05 -.5124621726907D-05 -.5412369123671D-05 -.5689037018746D-05
 -.5954501669435D-05 -.6208730321792D-05 -.6451772691640D-05 -.6683750463689D-05
 -.6904846157877D-05 -.7115292295378D-05 -.7315361413252D-05 -.7505357180516D-05
 -.7685606676471D-05 -.7856453780756D-05 -.8018253575332D-05 -.8171367640689D-05
 -.8316160132265D-05 -.8452994530706D-05 -.8582230973184D-05 -.8704224082657D-05
 -.8819321224431D-05 -.8927861126845D-05 -.9030172813021D-05 -.9126574795873D-05
 -.9217374496832D-05 -.9302867852172D-05 -.9383339077662D-05 -.9459060564364D-05
 -.9530292884077D-05 -.9597284884018D-05 -.9660273855149D-05 -.9719485758875D-05
 -.9775135500956D-05 -.9827427241244D-05 -.9876554731456D-05 -.9922701672482D-05
OQR-1S  MV&DW POTENTIALS END
FQR-1S  MV&DW POTENTIALS START
       200
  .1013202183950D-03  .1081247854127D-03  .1153863405128D-03  .1231355745689D-03
  .1314052396239D-03  .1402302873161D-03  .1496480166013D-03  .1596982313973D-03
  .1704234088138D-03  .1818688786820D-03  .1940830151401D-03  .2071174410865D-03
  .2210272463628D-03  .2358712205908D-03  .2517121016460D-03  .2686168408183D-03
  .2866568857808D-03  .3059084825629D-03  .3264529978026D-03  .3483772626423D-03
  .3717739397190D-03  .3967419148020D-03  .4233867147325D-03  .4518209534311D-03
  .4821648078599D-03  .5145465259481D-03  .5491029686311D-03  .5859801882908D-03
  .6253340460449D-03  .6673308704915D-03  .7121481606952D-03  .7599753363844D-03
  .8110145385321D-03  .8654814837013D-03  .9236063757692D-03  .9856348788809D-03
  .1051829155746D-02  .1122468975664D-02  .1197852896972D-02  .1278299528888D-02
  .1364148878119D-02  .1455763785888D-02  .1553531461482D-02  .1657865118785D-02
  .1769205722724D-02  .1888023852997D-02  .2014821692978D-02  .2150135152186D-02
  .2294536131301D-02  .2448634939294D-02  .2613082872890D-02  .2788574969268D-02
  .2975852943627D-02  .3175708324031D-02  .3388985796802D-02  .3616586776567D-02
  .3859473216082D-02  .4118671671911D-02  .4395277643155D-02  .4690460201567D-02
  .5005466932618D-02  .5341629208400D-02  .5700367814658D-02  .6083198955721D-02
  .6491740662722D-02  .6927719632186D-02  .7392978523891D-02  .7889483748849D-02
  .8419333780316D-02  .8984768022967D-02  .9588176277708D-02  .1023210884214D-01
  .1091928728937D-01  .1165261597070D-01  .1243519429081D-01  .1327032980741D-01
  .1416155221054D-01  .1511262824076D-01  .1612757760929D-01  .1721068998721D-01
  .1836654313573D-01  .1960002225404D-01  .2091634062653D-01  .2232106165669D-01
  .2382012238078D-01  .2541985856058D-01  .2712703146149D-01  .2894885642889D-01
  .3089303338369D-01  .3296777936601D-01  .3518186326434D-01  .3754464287719D-01
  .4006610446368D-01  .4275690495033D-01  .4562841697248D-01  .4869277694055D-01
  .5196293633444D-01  .5545271644279D-01  .5917686677855D-01  .6315112741751D-01
  .6739229552363D-01  .7191829634201D-01  .7674825895971D-01  .8190259715463D-01
  .8740309567406D-01  .9327300230769D-01  .9953712614406D-01  .1062219424259D+00
  .1133557044474D+00  .1209685629665D+00  .1290926936365D+00  .1377624329962D+00
  .1470144235931D+00  .1568877688520D+00  .1674241983459D+00  .1786682441651D+00
  .1906674291316D+00  .2034724676540D+00  .2171374800707D+00  .2317202213895D+00
  .2472823253881D+00  .2638895651086D+00  .2816121308464D+00  .3005249268088D+00
  .3207078876964D+00  .3422463165464D+00  .3652312452648D+00  .3897598193714D+00
  .4159357085845D+00  .4438695449796D+00  .4736793905743D+00  .5054912363162D+00
  .5394395345820D+00  .5756677674387D+00  .6143290530693D+00  .6555867929243D+00
  .6996153623363D+00  .7466008475150D+00  .7967418320385D+00  .8502502361643D+00
  .9073522125075D+00  .9682891018724D+00  .1033318453276D+01  .1102715112476D+01
  .1176772383604D+01  .1255803268809D+01  .1340141791161D+01  .1430144406391D+01
  .1526191509453D+01  .1628689042251D+01  .1738070209354D+01  .1854797308926D+01
  .1979363686624D+01  .2112295820719D+01  .2254155547249D+01  .2405542434612D+01
  .2567096317636D+01  .2739500001829D+01  .2923482149252D+01  .3119820358200D+01
  .3329344449711D+01  .3552939974792D+01  .3791551957195D+01  .4046188887542D+01
  .4317926985704D+01  .4607914749426D+01  .4917377808443D+01  .5247624104586D+01
  .5600049419785D+01  .5976143275321D+01  .6377495227272D+01  .6805801584750D+01
  .7262872579335D+01  .7750640015989D+01  .8271165437816D+01  .8826648839140D+01
  .9419437963759D+01  .1005203822765D+02  .1072712330809D+02  .1144754644391D+02
  .1221635249468D+02  .1303679080976D+02  .1391232896164D+02  .1484666740162D+02
  .1584375509967D+02  .1690780623474D+02  .1804331800594D+02  .1925508963988D+02
  .2054824267452D+02  .2192824260535D+02  .2340092198519D+02  .2497250507540D+02
  .2664963415270D+02  .2843939758259D+02  .3034935977831D+02  .3238759317170D+02
  .3456271233127D+02  .3688391037151D+02  .3936099780753D+02  .4200444401907D+02
 2S
 -.1111703741571D+06 -.9693467664056D+05 -.8458651474858D+05 -.7386471652348D+05
 -.6454276793257D+05 -.5642885781361D+05 -.4935939461065D+05 -.4319445920850D+05
 -.3781406661254D+05 -.3311507806709D+05 -.2900864001993D+05 -.2541805129842D+05
 -.2227697977383D+05 -.1952796545422D+05 -.1712115931004D+05 -.1501325692125D+05
 -.1316659380336D+05 -.1154837545635D+05 -.1013002012217D+05 -.8886596198712D+04
 -.7796339445019D+04 -.6840237685789D+04 -.6001672808763D+04 -.5266111545666D+04
 -.4620837913898D+04 -.4054721333697D+04 -.3558015372664D+04 -.3122182844940D+04
 -.2739743636472D+04 -.2404142165264D+04 -.2109631835569D+04 -.1851174223506D+04
 -.1624351050943D+04 -.1425287275024D+04 -.1250583850552D+04 -.1097258918332D+04
 -.9626963400486D+03 -.8446006437596D+03 -.7409575673807D+03 -.6499994937103D+03
 -.5701751621494D+03 -.5001231214512D+03 -.4386484564081D+03 -.3847023808430D+03
 -.3373643409088D+03 -.2958263175985D+03 -.2593790564524D+03 -.2273999864967D+03
 -.1993426201506D+03 -.1747272517547D+03 -.1531327950146D+03 -.1341896194370D+03
 -.1175732631376D+03 -.1029989145359D+03 -.9021656870096D+02 -.7900677571084D+02
 -.6917690855105D+02 -.6055788697739D+02 -.5300130157181D+02 -.4637688905852D+02
 -.4057031594386D+02 -.3548123280178D+02 -.3102156613883D+02 -.2711401881807D+02
 -.2369075357044D+02 -.2069223723620D+02 -.1806622611152D+02 -.1576687517321D+02
 -.1375395605883D+02 -.1199217052664D+02 -.1045054774074D+02 -.9101915149771D+01
 -.7922433976611D+01 -.6891191432980D+01 -.5989842735279D+01 -.5202296843113D+01
 -.4514440583676D+01 -.3913896476481D+01 -.3389810144656D+01 -.2932663701051D+01
 -.2534111938106D+01 -.2186838537414D+01 -.1884429854655D+01 -.1621264133883D+01
 -.1392414267087D+01 -.1193562444905D+01 -.1020925246315D+01 -.8711878924180D+00
 -.7414465451167D+00 -.6291576681668D+00 -.5320935880742D+00 -.4483034976521D+00
 -.3760792374861D+00 -.3139252716577D+00 -.2605323451717D+00 -.2147543728191D+00
 -.1755881636635D+00 -.1421556328649D+00 -.1136881938351D+00 -.8951305936007D-01
 -.6904121072079D-01 -.5175681923787D-01 -.3720792500792D-01 -.2499819246412D-01
 -.1477957069508D-01 -.6245685980285D-02  .8742195528650D-03  .6821024186440D-02
  .1181143153858D-01  .1604408185743D-01  .1970679401651D-01  .2298625342478D-01
  .2608274715479D-01  .2923555665396D-01  .3277234221493D-01  .3721820159651D-01
  .4357597773536D-01  .5421299684080D-01  .7677039845834D-01  .1590167046823D+00
 -.4392146865620D+00 -.7489613803705D-01 -.3586944317245D-01 -.2119095101636D-01
 -.1366033020960D-01 -.9197259682641D-02 -.6331936757953D-02 -.4402051680191D-02
 -.3062826781954D-02 -.2115948890037D-02 -.1439123768850D-02 -.9531295844145D-03
 -.6047017483706D-03 -.3569024091975D-03 -.1834060533314D-03 -.6499357552833D-04
  .1265042746224D-04  .6035193185321D-04  .8637764091160D-04  .9706439947293D-04
  .9725943501919D-04  .9063968349027D-04  .7995221343678D-04  .6720186102988D-04
  .5380250404395D-04  .4070234523400D-04  .2848958501787D-04  .1748212832453D-04
  .7803169917966D-05 -.5564710501625D-06 -.7688662321654D-05 -.1373009131050D-04
 -.1883497415305D-04 -.2315672037902D-04 -.2683674337316D-04 -.2999863119963D-04
 -.3274608222293D-04 -.3516328995319D-04 -.3731676392148D-04 -.3925785289372D-04
 -.4102547110224D-04 -.4264871176760D-04 -.4414916876583D-04 -.4554288439382D-04
 -.4684190691133D-04 -.4805548306130D-04 -.4919093406175D-04 -.5025427344831D-04
 -.5125062564887D-04 -.5218449861007D-04 -.5305995495540D-04 -.5388071619981D-04
 -.5465022508423D-04 -.5537168308441D-04 -.5604807404963D-04 -.5668218068406D-04
 -.5727659765716D-04 -.5783374088977D-04 -.5835582521281D-04 -.5884541887680D-04
 -.5926943081102D-04  .1918157523625D+02 -.6022553970117D-04 -.6058880868903D-04
 -.6093015512822D-04 -.6125084696978D-04 -.6155208549553D-04 -.6183500799962D-04
 -.6210069047208D-04 -.6235015026297D-04 -.6258434871562D-04 -.6280419375289D-04
 -.6301054240957D-04 -.6320420329916D-04 -.6338593901186D-04 -.6355646843541D-04
 -.6371646899825D-04 -.6386657882919D-04 -.6400739883512D-04 -.6413949469414D-04
 2P
 -.2099814717521D+06 -.1843778901600D+06 -.1618958720955D+06 -.1421548614292D+06
 -.1248206950265D+06 -.1095999471376D+06 -.9623496323790D+05 -.8449949927131D+05
 -.7419489249490D+05 -.6514669911978D+05 -.5720174184338D+05 -.5022551730525D+05
 -.4409991958977D+05 -.3872124124791D+05 -.3399841800707D+05 -.2985148746200D+05
 -.2621023566137D+05 -.2301300868450D+05 -.2020566909488D+05 -.1774067960936D+05
 -.1557629847452D+05 -.1367587293258D+05 -.1200721881902D+05 -.1054207579207D+05
 -.9255628973984D+04 -.8126088908102D+04 -.7134322722687D+04 -.6263530259017D+04
 -.5498959682342D+04 -.4827657762471D+04 -.4238250597511D+04 -.3720751069520D+04
 -.3266389773277D+04 -.2867466556599D+04 -.2517220159519D+04 -.2209713745922D+04
 -.1939734390220D+04 -.1702704817839D+04 -.1494605905660D+04 -.1311908630703D+04
 -.1151514315198D+04 -.1010702156664D+04 -.8870831548606D+03 -.7785596557843D+03
 -.6832898279248D+03 -.5996564694880D+03 -.5262396185917D+03 -.4617925028078D+03
 -.4052204209436D+03 -.3555621995846D+03 -.3119739105020D+03 -.2737145732942D+03
 -.2401336012326D+03 -.2106597777904D+03 -.1847915772385D+03 -.1620886654454D+03
 -.1421644369932D+03 -.1246794622636D+03 -.1093357335522D+03 -.9587161279202D+02
 -.8405739534667D+02 -.7369141475889D+02 -.6459662250060D+02 -.5661758480935D+02
 -.4961784575745D+02 -.4347761189985D+02 -.3809171929097D+02 -.3336784844087D+02
 -.2922495697878D+02 -.2559190347791D+02 -.2240623913192D+02 -.1961314681527D+02
 -.1716450955522D+02 -.1501809263461D+02 -.1313682546822D+02 -.1148817108548D+02
 -.1004357253564D+02 -.8777966834074D+01 -.7669358212528D+01 -.6698443440232D+01
 -.5848282864993D+01 -.5104011597693D+01 -.4452585943668D+01 -.3882560781583D+01
 -.3383894114765D+01 -.2947775480319D+01 -.2566475305709D+01 -.2233212657454D+01
 -.1942039138352D+01 -.1687736963374D+01 -.1465729484764D+01 -.1272002647945D+01
 -.1103036045180D+01 -.9557423966937D+00 -.8274144318367D+00 -.7156782683588D+00
 -.6184524979647D+00 -.5339122830192D+00 -.4604578540885D+00 -.3966868724408D+00
 -.3413701869037D+00 -.2934305717145D+00 -.2519240821609D+00 -.2160237087615D+00
 -.1850050492317D+00 -.1582337512042D+00 -.1351545082116D+00 -.1152814173458D+00
 -.9818952974903D-01 -.8350744510574D-01 -.7091081897375D-01 -.6011666745822D-01
 -.5087836769870D-01 -.4298126516545D-01 -.3623881006340D-01 -.3048915536710D-01
 -.2559215819003D-01 -.2142673413438D-01 -.1788852036422D-01 -.1488780614123D-01
 -.1234768762387D-01 -.1020239583045D-01 -.8395736988139D-02 -.6879589495442D-02
 -.5612449333156D-02 -.4558114265963D-02 -.3684681122138D-02 -.2963980411184D-02
 -.2371374835951D-02 -.1885680260453D-02 -.1488990463566D-02 -.1166341220051D-02
 -.9052743732179D-03 -.6953931462766D-03 -.5279711669116D-03 -.3956388428785D-03
 -.2921445032578D-03 -.2121759732830D-03 -.1512259078351D-03 -.1054864128827D-03
 -.7176225094234D-04 -.4739574383385D-04 -.3019963521280D-04 -.1839630614545D-04
 -.1056273795222D-04 -.5580670515432D-05 -.2591021655517D-05 -.9514615059203D-06
 -.1964616643074D-06 -.6890213301124D-11 -.1419219870264D-06 -.4789659682582D-06
 -.9214380518638D-06 -.1415339212397D-05 -.1929507390679D-05 -.2446793628061D-05
 -.2958275879757D-05 -.3459619876189D-05 -.3948884758243D-05 -.4425262203618D-05
 -.4888396914597D-05 -.5338055357117D-05 -.5773993014105D-05 -.6195926553952D-05
 -.6603554271514D-05 -.6996592153980D-05 -.7374808300845D-05 -.7738048040740D-05
 -.8086247813200D-05 -.8419438964335D-05 -.8737743937141D-05 -.9041367570924D-05
 -.9330585864955D-05 -.9605733955687D-05 -.9867194443735D-05 -.1011538669755D-04
 -.1035075740466D-04 -.1057377241763D-04 -.1078490982652D-04 -.1098465413671D-04
 -.1117349141980D-04 -.1135190530797D-04 -.1152037371643D-04 -.1167936618960D-04
 -.1182934178217D-04 -.1197074739549D-04 -.1210401650247D-04 -.1222956820087D-04
 -.1234780654512D-04 -.1245912011139D-04 -.1256388175903D-04 -.1266244855426D-04
 -.1275516182913D-04 -.1284234735016D-04 -.1292431557711D-04 -.1300136199271D-04
 -.1307376748953D-04 -.1314179879960D-04 -.1320570895714D-04 -.1326573778384D-04
FQR-1S  MV&DW POTENTIALS END
NEQR-1S MV&DW POTENTIALS START
       200
  .9118819655545D-04  .9731230687147D-04  .1038477064615D-03  .1108220171120D-03
  .1182647156616D-03  .1262072585845D-03  .1346832149412D-03  .1437284082576D-03
  .1533810679324D-03  .1636819908138D-03  .1746747136261D-03  .1864056969778D-03
  .1989245217265D-03  .2122840985318D-03  .2265408914814D-03  .2417551567365D-03
  .2579911972027D-03  .2753176343066D-03  .2938076980224D-03  .3135395363781D-03
  .3345965457471D-03  .3570677233218D-03  .3810480432592D-03  .4066388580880D-03
  .4339483270739D-03  .4630918733533D-03  .4941926717680D-03  .5273821694617D-03
  .5628006414404D-03  .6005977834423D-03  .6409333446256D-03  .6839778027460D-03
  .7299130846789D-03  .7789333353311D-03  .8312457381923D-03  .8870713909928D-03
  .9466462401710D-03  .1010222078098D-02  .1078067607274D-02  .1150469575999D-02
  .1227733990307D-02  .1310187407299D-02  .1398178315334D-02  .1492078606907D-02
  .1592285150451D-02  .1699221467697D-02  .1813339523680D-02  .1935121636968D-02
  .2065082518171D-02  .2203771445364D-02  .2351774585601D-02  .2509717472341D-02
  .2678267649264D-02  .2858137491628D-02  .3050087217122D-02  .3254928098910D-02
  .3473525894474D-02  .3706804504720D-02  .3955749878840D-02  .4221414181411D-02
  .4504920239356D-02  .4807466287560D-02  .5130331033192D-02  .5474879060149D-02
  .5842566596450D-02  .6234947668967D-02  .6653680671502D-02  .7100535373964D-02
  .7577400402285D-02  .8086291220670D-02  .8629358649937D-02  .9208897957928D-02
  .9827358560436D-02  .1048735437363D-01  .1119167486173D-01  .1194329682667D-01
  .1274539698948D-01  .1360136541668D-01  .1451481984836D-01  .1548962098849D-01
  .1652988882216D-01  .1764002002863D-01  .1882470656387D-01  .2008895549102D-01
  .2143811014270D-01  .2287787270452D-01  .2441432831534D-01  .2605397078600D-01
  .2780373004532D-01  .2967100142941D-01  .3166367693791D-01  .3379017858947D-01
  .3605949401731D-01  .3848121445530D-01  .4106557527524D-01  .4382349924650D-01
  .4676664270099D-01  .4990744479851D-01  .5325918010069D-01  .5683601467575D-01
  .6065306597126D-01  .6472646670780D-01  .6907343306374D-01  .7371233743916D-01
  .7866278610666D-01  .8394570207692D-01  .8958341352965D-01  .9559974818331D-01
[...]
 0.3658895031094D-01 0.3972522159977D-01 0.4313032261761D-01 0.4682729646774D-01
 0.5084116142415D-01 0.5519908023598D-01 0.5993054394407D-01 0.6506757145369D-01
 0.7064492621379D-01 0.7670035146930D-01 0.8327482567836D-01 0.9041283982299D-01
 0.9816269848983D-01 0.1065768467584D+00 0.1157122251090D+00 0.1256306547521D+00
 0.1363992559868D+00 0.1480909024192D+00 0.1607847141150D+00 0.1745665930231D+00
 0.1895298042941D+00 0.2057756074268D+00 0.2234139415148D+00 0.2425641692295D+00
 0.2633558845749D+00 0.2859297898801D+00 0.3104386479643D+00 0.3370483159181D+00
 0.3659388674965D+00 0.3973058117199D+00 0.4313614159280D+00 0.4683361422425D+00
 0.5084802071569D+00 0.5520652748095D+00 0.5993862953971D+00 0.6507635011708D+00
 0.7065445735216D+00 0.7671069958207D+00 0.8328606079359D+00 0.9042503797130D+00
 0.9817594221890D+00 0.1065912256916D+01 0.1157278365519D+01 0.1256476043509D+01
 0.1364176584434D+01 0.1481108822672D+01 0.1608064065626D+01 0.1745901448682D+01
 0.1895553749174D+01 0.2058033698706D+01 0.2234440836539D+01 0.2425968950428D+01
 0.2633914155254D+01 0.2859683664140D+01 0.3104805311379D+01 0.3370937891645D+01
 0.3659882385437D+01 0.3973594146730D+01 0.4314196135306D+01 0.4683993283312D+01
 0.5085488093266D+01 0.5521397573068D+01 0.5994671622623D+01 0.6508512996485D+01
 0.7066398977644D+01 0.7672104909097D+01 0.8329729742462D+01 0.9043723776534D+01
 0.9818918773475D+01 0.1066056065647D+02 0.1157434501009D+02 0.1256645562364D+02
 0.1364360633827D+02 0.1481308648107D+02 0.1608281019368D+02 0.1746136998907D+02
 0.1895809489905D+02 0.2058311360599D+02 0.2234742298597D+02 0.2426296252712D+02
 0.2634269512696D+02 0.2860069481525D+02 0.3105224199622D+02 0.3371392685460D+02
 0.3660376162518D+02 0.3974130248580D+02 0.4314778189851D+02 0.4684625229448D+02
 0.5086174207518D+02 0.5522142498530D+02 0.5995480400377D+02 0.6509391099716D+02
 5F               Mass-velocity + Darwin potential. (a.u.)
 -.2935337080169D+12 -.2490146077572D+12 -.2112475246189D+12 -.1792084110910D+12
 -.1520285321601D+12 -.1289709098023D+12 -.1094103400159D+12 -.9281644058528D+11
 -.7873926990356D+11 -.6679712692612D+11 -.5666620144236D+11 -.4807179404668D+11
 -.4078086773076D+11 -.3459572914442D+11 -.2934866818657D+11 -.2489741058701D+11
 -.2112126017125D+11 -.1791782621195D+11 -.1520024712588D+11 -.1289483524104D+11
 -.1093907876983D+11 -.9279946814516D+10 -.7872451443688D+10 -.6678427852662D+10
 -.5665499530579D+10 -.4806200376331D+10 -.4077229958624D+10 -.3458821727673D+10
 -.2934207046976D+10 -.2489160513180D+10 -.2111614234967D+10 -.1791330612674D+10
 -.1519624745768D+10 -.1289128941657D+10 -.1093592940256D+10 -.9277144376926D+09
 -.7869953136407D+09 -.6676196640757D+09 -.5663503322054D+09 -.4804411321492D+09
 -.4075623852234D+09 -.3457377498543D+09 -.2932906321958D+09 -.2487987244473D+09
 -.2110554381337D+09 -.1790371866588D+09 -.1518756299644D+09 -.1288341287464D+09
 -.1092877697541D+09 -.9270642058768D+08 -.7864035450144D+08 -.6670805544872D+08
 -.5658587268639D+08 -.4799924443557D+08 -.4071525261659D+08 -.3453630678796D+08
 -.2929478602031D+08 -.2484849342525D+08 -.2107680008178D+08 -.1787737380609D+08
 -.1516340406036D+08 -.1286124775565D+08 -.1090843211101D+08 -.9251960417327D+07
 -.7846874763441D+07 -.6655036753510D+07 -.5644093152065D+07 -.4786598410459D+07
 -.4059270279901D+07 -.3442358326955D+07 -.2919108227108D+07 -.2475307310492D+07
 -.2098899035871D+07 -.1779655939029D+07 -.1508902186420D+07 -.1279278210793D+07
 -.1084541045926D+07 -.9193949462062D+06 -.7793476975127D+06 -.6605887229362D+06
 -.5598856775132D+06 -.4744967278127D+06 -.4020961372960D+06 -.3407111393870D+06
 -.2886683861147D+06 -.2445485200008D+06 -.2071476370297D+06 -.1754445955166D+06
 -.1485732841342D+06 -.1257990969190D+06 -.1064989771097D+06 -.9014448850635D+05
 -.7628745510254D+05 -.6454777943474D+05 -.5460310915111D+05 -.4618007145513D+05
 -.3904683758252D+05 -.3300681556307D+05 -.2789330010604D+05 -.2356493442283D+05
 -.1990186081196D+05 -.1680245552411D+05 -.1418055926479D+05 -.1196312814318D+05
 -.1008824127388D+05 -.8503410916472D+04 -.7164149238839D+04 -.6032752752424D+04
 -.5077271367077D+04 -.4270634020123D+04 -.3589907075994D+04 -.3015665292381D+04
 -.2531458198717D+04 -.2123357325196D+04 -.1779571928712D+04 -.1490122762943D+04
 -.1246565094971D+04 -.1041753625117D+04 -.8696432094259D+03 -.7251202519496D+03
 -.6038602688997D+03 -.5022075142107D+03 -.4170729375935D+03 -.3458473238558D+03
 -.2863271860275D+03 -.2366516304739D+03 -.1952488227595D+03 -.1607908731618D+03
 -.1321560314023D+03 -.1083971180953D+03 -.8871516545127D+02 -.7243730227045D+02
 -.5899800187967D+02 -.4792293384058D+02 -.3881486180930D+02 -.3134133515291D+02
 -.2522420451357D+02 -.2023095899440D+02 -.1616752431156D+02 -.1287200551479D+02
 -.1020916876955D+02 -.8065790397049D+01 -.6347000557953D+01 -.4973542199104D+01
 -.3879684071904D+01 -.3011459525126D+01 -.2324956332560D+01 -.1784569784116D+01
 -.1361397527365D+01 -.1031992925515D+01 -.7773836148061D+00 -.5821633657381D+00
 -.4337068631459D+00 -.3216270879785D+00 -.2374582439215D+00 -.1744522337790D+00
 -.1273830350942D+00 -.9230624233952D-01 -.6627772506963D-01 -.4708357998716D-01
 -.3304252563222D-01 -.2287818511100D-01 -.1561787762516D-01 -.1051085654626D-01
 -.6974754298476D-02 -.4563186511318D-02 -.2941965325288D-02 -.1867253095562D-02
 -.1164967030617D-02 -.7129380542954D-03 -.4267311554312D-03 -.2488591366222D-03
 -.1407057725419D-03 -.7662079225037D-04 -.3976689947660D-04 -.1929011499142D-04
 -.8390550805110D-05 -.2963133680235D-05 -.6189391401702D-06 -.1072888481775D-08
 -.3401965329584D-06 -.1189987077042D-05 -.2281862451600D-05 -.3449794822953D-05
 -.4592104989910D-05 -.5650877963679D-05 -.6599013007726D-05 -.7430515543990D-05
 -.8152580835557D-05 -.8779264402179D-05 -.9326827191574D-05 -.9810726718795D-05
 -.1024402958148D-04 -.1063689188238D-04 -.1099672382239D-04 -.1132870028567D-04
 -.1163636664055D-04 -.1192218598941D-04 -.1218795910128D-04 -.1243510798447D-04
 -.1266484685762D-04 -.1287827441493D-04 -.1307641824842D-04 -.1326025349490D-04
 -.1343070936495D-04 -.1358867070487D-04 -.1373497808259D-04 -.1387042769764D-04
 -.1399577165721D-04 -.1411171861574D-04 -.1421893481298D-04 -.1431804535357D-04
 -.1440963573323D-04 -.1449425347142D-04 -.1457240987519D-04 -.1464458181794D-04
 -.1471121357428D-04 -.1477271861168D-04 -.1482948139124D-04 -.1488185909054D-04
 6P               Mass-velocity + Darwin potential. (a.u.)
 -.2935337017509D+12 -.2490146019859D+12 -.2112475193033D+12 -.1792084061950D+12
 -.1520285276506D+12 -.1289709056489D+12 -.1094103361903D+12 -.9281643706179D+11
 -.7873926665824D+11 -.6679712393703D+11 -.5666619868925D+11 -.4807179151092D+11
 -.4078086539521D+11 -.3459572699326D+11 -.2934866620525D+11 -.2489740876211D+11
 -.2112125849042D+11 -.1791782466383D+11 -.1520024569998D+11 -.1289483392772D+11
 -.1093907756020D+11 -.9279945700389D+10 -.7872450417523D+10 -.6678426907515D+10
 -.5665498660054D+10 -.4806199574536D+10 -.4077229220134D+10 -.3458821047490D+10
 -.2934206420495D+10 -.2489159936163D+10 -.2111613703508D+10 -.1791330123176D+10
 -.1519624294920D+10 -.1289128526406D+10 -.1093592557792D+10 -.9277140854273D+09
 -.7869949891898D+09 -.6676193652434D+09 -.5663500569692D+09 -.4804408786461D+09
 -.4075621517377D+09 -.3457375348057D+09 -.2932904341286D+09 -.2487985420209D+09
 -.2110552701134D+09 -.1790370319071D+09 -.1518754874339D+09 -.1288339974721D+09
 -.1092876488475D+09 -.9270630923024D+08 -.7864025193927D+08 -.6670796098746D+08
 -.5658578568649D+08 -.4799916430796D+08 -.4071517881875D+08 -.3453623882016D+08
 -.2929472342228D+08 -.2484843577308D+08 -.2107674698499D+08 -.1787732490507D+08
 -.1516335902386D+08 -.1286120627858D+08 -.1090839391237D+08 -.9251925238288D+07
 -.7846842365625D+07 -.6655006917352D+07 -.5644065675333D+07 -.4786573106887D+07
 -.4059246977928D+07 -.3442336868565D+07 -.2919088466757D+07 -.2475289114129D+07
 -.2098882280027D+07 -.1779640509981D+07 -.1508887979423D+07 -.1279265129372D+07
 -.1084529001221D+07 -.9193838563705D+06 -.7793374871622D+06 -.6605793226366D+06
 -.5598770233110D+06 -.4744887608023D+06 -.4020888032212D+06 -.3407043882736D+06
 -.2886621719325D+06 -.2445428003520D+06 -.2071423728621D+06 -.1754397508595D+06
 -.1485688258545D+06 -.1257949944974D+06 -.1064952024342D+06 -.9014101568196D+05
 -.7628426027602D+05 -.6454484063339D+05 -.5460040613405D+05 -.4617758557648D+05
 -.3904455166533D+05 -.3300471378321D+05 -.2789136788528D+05 -.2356315833038D+05
 -.1990022847379D+05 -.1680095553949D+05 -.1417918112940D+05 -.1196186217836D+05
 -.1008707856148D+05 -.8502343238953D+04 -.7163169024098D+04 -.6031853023134D+04
 -.5076445694128D+04 -.4269876479953D+04 -.3589212211568D+04 -.3015028077665D+04
 -.2530874006487D+04 -.2122821898043D+04 -.1779081352923D+04 -.1489673444724D+04
 -.1246153737998D+04 -.1041377208101D+04 -.8692989624613D+03 -.7248056314416D+03
 -.6035729323799D+03 -.5019452974115D+03 -.4168338357384D+03 -.3456294775907D+03
 -.2861288709745D+03 -.2364712488777D+03 -.1950848959878D+03 -.1606420343675D+03
 -.1320210180905D+03 -.1082747645868D+03 -.8860439541323D+02 -.7233712172618D+02
 -.5890749346263D+02 -.4784125327605D+02 -.3874123693722D+02 -.3127506562268D+02
 -.2516465818638D+02 -.2017756280973D+02 -.1611975243750D+02 -.1282936975659D+02
 -.1017121342207D+02 -.8032090389742D+01 -.6317160625124D+01 -.4947195233750D+01
 -.3856487888099D+01 -.2991093063456D+01 -.2307118730971D+01 -.1768985305114D+01
 -.1347821742500D+01 -.1020210461524D+01 -.7671981071116D+00 -.5733892283450D+00
 -.4261672619320D+00 -.3151561085659D+00 -.2319044054370D+00 -.1696821342483D+00
 -.1232853562071D+00 -.8879548123094D-01 -.6329250560515D-01 -.4457475799656D-01
 -.3096006848249D-01 -.2116833198239D-01 -.1422704339401D-01 -.9389245897889D-02
 -.6078094284195D-02 -.3853292299885D-02 -.2386600481497D-02 -.1439381634618D-02
 -.8416176442534D-03 -.4741477056737D-03 -.2549365446260D-03 -.1287478026512D-03
 -.5931418372970D-04 -.2345784720785D-04 -.6803868355228D-05 -.7355399079960D-06
 -.2741132372217D-06 -.2642231208168D-05 -.6332024548178D-05 -.1053398147454D-04
 -.1480871015793D-04 -.1891080702269D-04 -.2270082454353D-04 -.2610387034028D-04
 -.2909002933953D-04 -.3166313964904D-04 -.3385173984138D-04 -.3570029113029D-04
 -.3726086875051D-04 -.3858614233417D-04 -.3972429487165D-04 -.4071607654268D-04
 -.4159376749226D-04 -.4238156249603D-04 -.4309680832376D-04 -.4375157924705D-04
 -.4435421188956D-04 -.4491058010181D-04 -.4542503245155D-04 -.4590101256904D-04
 -.4634143223949D-04 -.4674887677009D-04 -.4712570976547D-04 -.4747412363154D-04
 -.4779616389481D-04 -.4809374194754D-04 -.4836864337401D-04 -.4862253463902D-04
 -.4885696938503D-04 -.4907339450611D-04 -.4927315620539D-04 -.4945750586007D-04
 -.4962760580273D-04 -.4978453484109D-04 -.4992929363339D-04 -.5006280976286D-04
 -.5018594263817D-04 -.5029948807912D-04 -.5040418271993D-04 -.5050070810046D-04
 6D               Mass-velocity + Darwin potential. (a.u.)
 -.2935337062195D+12 -.2490146061018D+12 -.2112475230942D+12 -.1792084096866D+12
 -.1520285308666D+12 -.1289709086110D+12 -.1094103389186D+12 -.9281643957461D+11
 -.7873926897268D+11 -.6679712606874D+11 -.5666620065266D+11 -.4807179331933D+11
 -.4078086706084D+11 -.3459572852738D+11 -.2934866761825D+11 -.2489741006356D+11
 -.2112125968912D+11 -.1791782576789D+11 -.1520024671688D+11 -.1289483486433D+11
 -.1093907842287D+11 -.9279946494941D+10 -.7872451149344D+10 -.6678427581557D+10
 -.5665499280879D+10 -.4806200146345D+10 -.4077229746797D+10 -.3458821532570D+10
 -.2934206867277D+10 -.2489160347669D+10 -.2111614082524D+10 -.1791330472267D+10
 -.1519624616447D+10 -.1289128822547D+10 -.1093592830550D+10 -.9277143366491D+09
 -.7869952205755D+09 -.6676195783588D+09 -.5663502532568D+09 -.4804410594345D+09
 -.4075623182504D+09 -.3457376881698D+09 -.2932905753822D+09 -.2487986721201D+09
 -.2110553899388D+09 -.1790371422698D+09 -.1518755890809D+09 -.1288340910916D+09
 -.1092877350732D+09 -.9270638864583D+08 -.7864032508242D+08 -.6670802835336D+08
 -.5658584773124D+08 -.4799922145166D+08 -.4071523144831D+08 -.3453628729197D+08
 -.2929476806458D+08 -.2484847688819D+08 -.2107678485138D+08 -.1787735977921D+08
 -.1516339114198D+08 -.1286123585825D+08 -.1090842115400D+08 -.9251950326462D+07
 -.7846865470344D+07 -.6655028195200D+07 -.5644085270535D+07 -.4786591152280D+07
 -.4059263595864D+07 -.3442352171734D+07 -.2919102558955D+07 -.2475302090956D+07
 -.2098894229537D+07 -.1779651513276D+07 -.1508898111204D+07 -.1279274458440D+07
 -.1084537590949D+07 -.9193917651273D+06 -.7793447687093D+06 -.6605860264918D+06
 -.5598831950837D+06 -.4744944425017D+06 -.4020940335409D+06 -.3407092028533D+06
 -.2886666035995D+06 -.2445468793429D+06 -.2071461270277D+06 -.1754432058530D+06
 -.1485720053054D+06 -.1257979201713D+06 -.1064978943800D+06 -.9014349236747D+05
 -.7628653871300D+05 -.6454693649258D+05 -.5460233385121D+05 -.4617935844998D+05
 -.3904618194608D+05 -.3300621275744D+05 -.2789274595088D+05 -.2356442506707D+05
 -.1990139270783D+05 -.1680202540324D+05 -.1418016411614D+05 -.1196276519278D+05
 -.1008790796617D+05 -.8503104897118D+04 -.7163868338895D+04 -.6032494973784D+04
 -.5077034869056D+04 -.4270417107105D+04 -.3589708186052D+04 -.3015482986796D+04
 -.2531291152315D+04 -.2123204317462D+04 -.1779431835601D+04 -.1489994549351D+04
 -.1246447807784D+04 -.1041646386773D+04 -.8695452118864D+03 -.7250307510259D+03
 -.6037785789122D+03 -.5021330030146D+03 -.4170050220224D+03 -.3457854656108D+03
 -.2862708880028D+03 -.2366004334897D+03 -.1952023026764D+03 -.1607486383529D+03
 -.1321177205652D+03 -.1083623983841D+03 -.8868373090878D+02 -.7240887253158D+02
 -.5897232106486D+02 -.4789976941716D+02 -.3879400298305D+02 -.3132259035201D+02
 -.2520739815113D+02 -.2021592857331D+02 -.1615411884622D+02 -.1286008515462D+02
 -.1019860481816D+02 -.8056465087020D+01 -.6338806264235D+01 -.4966379836541D+01
 -.3873460409383D+01 -.3006083594181D+01 -.2320336630065D+01 -.1780615523060D+01
 -.1358024325421D+01 -.1029126978799D+01 -.7749601642889D+00 -.5801228520532D+00
 -.4319928880734D+00 -.3201867726349D+00 -.2362439795816D+00 -.1734240678140D+00
 -.1265112817683D+00 -.9157294000649D-01 -.6567351884168D-01 -.4659955571635D-01
 -.3266486100213D-01 -.2258995194817D-01 -.1540268559989D-01 -.1035456071651D-01
 -.6865663786417D-02 -.4491794152299D-02 -.2900555634841D-02 -.1849421908466D-02
 -.1165156136142D-02 -.7261644592237D-03 -.4485469402248D-03 -.2754222045057D-03
 -.1688613306254D-03 -.1039653415090D-03 -.6467114015868D-04 -.4083965476761D-04
 -.2623407817348D-04 -.1711632886058D-04 -.1129200471208D-04 -.7486224912560D-05
 -.4955135683939D-05 -.3255210415634D-05 -.2111855180782D-05 -.1347181184715D-05
 -.8412294111241D-06 -.5111005797200D-06 -.2991692339873D-06 -.1657529558622D-06
 -.8403249708361D-07 -.3628065700075D-07 -.1101864169372D-07 -.9157268687212D-09
 -.1296085488630D-08 -.9125062421005D-08 -.2235544678382D-07 -.3952917636816D-07
 -.5954883428196D-07 -.8155345835062D-07 -.1048526389923D-06 -.1288898222701D-06
 -.1532187638560D-06 -.1774856185828D-06 -.2014138437717D-06 -.2247911000708D-06
 -.2474579714616D-06 -.2692983742408D-06 -.2902314964701D-06 -.3102050561530D-06
 -.3291896930599D-06 -.3471743061387D-06 -.3641621969514D-06 -.3801678784401D-06
 -.3952144526090D-06 -.4093314532589D-06 -.4225530888372D-06 -.4349168080257D-06
 -.4464621456294D-06 -.4572297903421D-06 -.4672608479963D-06 -.4765962554329D-06
 7S               Mass-velocity + Darwin potential. (a.u.)
 -.1166686969272D+12 -.9897047596560D+11 -.8395877897159D+11 -.7122365443697D+11
 -.6042024400357D+11 -.5125552647992D+11 -.4348093169616D+11 -.3688559749193D+11
 -.3129064844721D+11 -.2654434316338D+11 -.2251795785805D+11 -.1910229454802D+11
 -.1620471901036D+11 -.1374664814171D+11 -.1166141850791D+11 -.9892478254298D+10
 -.8391853303902D+10 -.7118846235038D+10 -.6038932530624D+10 -.5122824260777D+10
 -.4345675793182D+10 -.3686409989083D+10 -.3127146604090D+10 -.2652717392312D+10
 -.2250254759474D+10 -.1908842810056D+10 -.1619221322562D+10 -.1373534625857D+10
 -.1165118564547D+10 -.9883197771289D+09 -.8383423847214D+09 -.7111179335603D+09
 -.6031950635505D+09 -.5116459114310D+09 -.4339867098417D+09 -.3681104295367D+09
 -.3122296377789D+09 -.2648280236745D+09 -.2246192756589D+09 -.1905121962273D+09
 -.1615811077188D+09 -.1370407467968D+09 -.1162249666937D+09 -.9856866979670D+08
 -.8359248053656D+08 -.7088974302759D+08 -.6011549080019D+08 -.5097708956847D+08
 -.4322629923555D+08 -.3665253991934D+08 -.3107717934740D+08 -.2634868673834D+08
 -.2233852172263D+08 -.1893764683771D+08 -.1605356900168D+08 -.1360782974693D+08
 -.1153387613716D+08 -.9775254637442D+07 -.8284078944749D+07 -.7019730233397D+07
 -.5947754556493D+07 -.5038927505035D+07 -.4268460750407D+07 -.3615328953265D+07
 -.3061698778296D+07 -.2592444529774D+07 -.2194737266670D+07 -.1857696253506D+07
 -.1572093289606D+07 -.1330101897186D+07 -.1125084562294D+07 -.9514122572651D+06
 -.8043113468175D+06 -.6797337244666D+06 -.5742466545248D+06 -.4849393307791D+06
 -.4093436153267D+06 -.3453668066311D+06 -.2912346114279D+06 -.2454427726165D+06
 -.2067160395382D+06 -.1739733667600D+06 -.1462983960754D+06 -.1229144201483D+06
 -.1031631475537D+06 -.8648669238617D+05 -.7241229892170D+05 -.6053938622847D+05
 -.5052856044927D+05 -.4209229602044D+05 -.3498703228577D+05 -.2900647047542D+05
 -.2397588851445D+05 -.1974731879683D+05 -.1619545738776D+05 -.1321419294130D+05
 -.1071366027600D+05 -.8617737616686D+04 -.6861918182333D+04 -.5391496420293D+04
 -.4160016762966D+04 -.3127938316157D+04 -.2261471919862D+04 -.1531545634460D+04
 -.9128486716130D+03 -.3828873262515D+03 0.7905154534354D+02 0.4932205141082D+03
 0.8814125745920D+03 0.1270575903042D+04 0.1700533890717D+04 0.2243631156645D+04
 0.3067061622298D+04 0.4711194926479D+04 0.1067080390609D+05 -.2632218852402D+05
 -.5239762120170D+04 -.2677016768727D+04 -.1676921845243D+04 -.1146831885096D+04
 -.8216894795483D+03 -.6047516647770D+03 -.4520294485606D+03 -.3404906190172D+03
 -.2568079980884D+03 -.1926532256202D+03 -.1424631559053D+03 -.1022438052341D+03
 -.6879434776412D+02 -.3891755867124D+02 -.7672306675188D+01 0.4023393998957D+02
 0.2979063415806D+03 -.1715698839316D+03 -.7415806515679D+02 -.4584428297071D+02
 -.3124725280423D+02 -.2206990885299D+02 -.1573152315512D+02 -.1110408236882D+02
 -.7565393953437D+01 -.4669582289953D+01 -.1878290818941D+01 0.2705046210965D+01
 -.4075987702818D+02 -.6077013838528D+01 -.3347601543860D+01 -.2136893976249D+01
 -.1412878626313D+01 -.9273716814984D+00 -.5789639693223D+00 -.3057018369239D+00
 -.2676512120687D-01 0.9882652363911D+00 -.6377782608018D+00 -.2768232223783D+00
 -.1599198860052D+00 -.9759605363204D-01 -.5878846240181D-01 -.3265537157487D-01
 -.1331358733854D-01 0.5707462923670D-02 0.8540409433096D-01 -.3367827003789D-01
 -.1276762264830D-01 -.6317215529088D-02 -.3250685193483D-02 -.1610827257597D-02
 -.7002131848482D-03 -.1850512764150D-03 0.1238532742737D-03 0.3712343979505D-03
 0.9613548782129D-03 -.1048000497821D-02 -.2207524393274D-03 -.8714016668567D-04
 -.3989974196508D-04 -.1932332353841D-04 -.9453777078521D-05 -.4443574501254D-05
 -.1817268804220D-05 -.4347579246004D-06 0.2659462396501D-06 0.5812304673456D-06
 0.6777204842251D-06 0.6534938539693D-06 0.5672156867608D-06 0.4533682503470D-06
 0.3311969050093D-06 0.2104835299700D-06 0.9542397207112D-07 -.1280182748742D-07
 -.1144142149982D-06 -.2101042570892D-06 -.3005691253881D-06 -.3863353526437D-06
 -.4677380985153D-06 -.5449674400035D-06 -.6181292641597D-06 -.6872957232769D-06
 -.7525378942315D-06 -.8139423943211D-06 -.8716169288211D-06 -.9256895885665D-06
 -.9763054127827D-06 -.1023622256055D-05 -.1067807080863D-05 -.1109033266645D-05
 -.1147477884102D-05 -.1177663017458D-05 -.1276513700113D-05 -.1253522426411D-05
 -.1280765381151D-05 -.1306110563281D-05 -.1329669780252D-05 -.1351551698598D-05
 -.1371861251374D-05 -.1390699206425D-05 -.1408161885546D-05 -.1424340987362D-05
LrQR(2D)-[Xe,4f,5d] MV&DW POTENTIALS END
