************************************************************************
* This file is part of OpenMolcas.                                     *
*                                                                      *
* OpenMolcas is free software; you can redistribute it and/or modify   *
* it under the terms of the GNU Lesser General Public License, v. 2.1. *
* OpenMolcas is distributed in the hope that it will be useful, but it *
* is provided "as is" and without any express or implied warranties.   *
* For more details see the full text of the license in the file        *
* LICENSE or in <http://www.gnu.org/licenses/>.                        *
************************************************************************
/O.Raf-r.Wahlgren.9s6p1d.3s4p1d.
U. Wahlgren
 Huzinaga
************************************************************************
*O.Raf-r.Wahlgren.9s6p1d.3s4p1d.
*Relativistic basis set
************************************************************************
      8.00000000
    9
 7816.5400 1175.8200 273.18800 81.169600 27.183600 3.4136000 9.5322000 0.93980000
0.28460000
  0.001498 -0.000339  0.
  0.009357 -0.002159  0.
  0.043459 -0.009950  0.
  0.144497 -0.035973  0.
  0.355748 -0.095349  0.
  0.139761 -0.036517  0.
  0.460667 -0.195926  0.
 -0.000580  0.597219  0.
  0.001385  0.523833  1.
    6
 35.183200 7.9040000 2.3051000 .71710000 .2137000 .059667000
  0.015481  0.        0.        0.
  0.097969  0.        0.        0.
  0.309706  0.        0.        0.
  0.496587  1.        0.        0.
  0.325230  0.        1.        0.
  0.017726  0.        0.        1.
    1
  1.
        1.
************************************************************************
/Y.Raf-r.Wahlgren.17s13p9d2f.7s6p4d2f.
U. Wahlgren
Knut Faegri, University of Oslo.
************************************************************************
*Y.Raf-r.Wahlgren.17s13p9d2f.7s6p4d2f.
*Relativistic basis set
************************************************************************
      39.00000000
   17
 461816.43 69789.975 16241.098 4809.6237 1659.5247 631.25883 258.98496 113.67350
 42.850652 19.348727 7.3445160 3.8809059 2.0210665 0.7595100 0.3343695 0.0654870
 0.0263420
 -0.002638 -0.000870  0.000360  0.000132  0.000037  0.000000  0.000000
 -0.008219 -0.002724  0.001128  0.000415  0.000117  0.000000  0.000000
 -0.024793 -0.008369  0.003468  0.001276  0.000360  0.000000  0.000000
 -0.068719 -0.023711  0.009890  0.003649  0.001029  0.000000  0.000000
 -0.172160 -0.064405  0.026995  0.009941  0.002807  0.000000  0.000000
 -0.336250 -0.143087  0.061730  0.022946  0.006470  0.000000  0.000000
 -0.381145 -0.232506  0.103730  0.038474  0.010904  0.000000  0.000000
 -0.163730 -0.066960  0.033923  0.013477  0.003741  0.000000  0.000000
 -0.012673  0.542432 -0.376554 -0.153387 -0.043568  0.000000  0.000000
  0.002339  0.539678 -0.517348 -0.217842 -0.063532  0.000000  0.000000
 -0.001501  0.090559  0.345809  0.166383  0.052065  0.000000  0.000000
  0.001352 -0.023299  0.703798  0.590866  0.180551  0.000000  0.000000
 -0.000660  0.009859  0.251610  0.211893  0.080380  0.000000  0.000000
  0.000223 -0.003000  0.013027 -0.800141 -0.361841  0.000000  0.000000
 -0.000087  0.001060 -0.000931 -0.519143 -0.379280  1.000000  0.000000
  0.000021 -0.000269  0.000271 -0.006026  0.939473  0.000000  0.000000
 -0.000009  0.000115 -0.000161  0.009524  0.272660  0.000000  1.000000
   13
 4211.6616 985.29943 316.60468 120.46893 50.528831 22.396479 9.2827223 3.9927405
 1.5903570 0.6701247 0.2561091 0.0979000 0.0374000
  0.003864 -0.001650  0.000552  0.000000  0.000000  0.000000
  0.022961 -0.009857  0.003292  0.000000  0.000000  0.000000
  0.098763 -0.044037  0.014829  0.000000  0.000000  0.000000
  0.274076 -0.127343  0.043019  0.000000  0.000000  0.000000
  0.437596 -0.223277  0.077097  0.000000  0.000000  0.000000
  0.302513 -0.074520  0.018740  0.000000  0.000000  0.000000
  0.052647  0.439184 -0.192092  0.000000  0.000000  0.000000
 -0.002420  0.571432 -0.292237  0.000000  0.000000  0.000000
  0.001805  0.128672  0.160845  0.000000  0.000000  0.000000
 -0.000909 -0.008062  0.667404  0.000000  0.000000  0.000000
  0.000420  0.004366  0.332770  1.000000  0.000000  0.000000
 -0.000195 -0.001890  0.006501  0.000000  1.000000  0.000000
  0.000062  0.000594  0.005737  0.000000  0.000000  1.000000
    9
 134.39603 40.181654 15.044591 6.1183422 2.5544508 0.9491421 0.3264654 0.1007518
 0.0311000
  0.025578 -0.004460  0.000000  0.000000
  0.138886 -0.024787  0.000000  0.000000
  0.347456 -0.060892  0.000000  0.000000
  0.445597 -0.076593  0.000000  0.000000
  0.269965 -0.001243  0.000000  0.000000
  0.043439  0.216647  0.000000  0.000000
 -0.001994  0.435459  0.000000  0.000000
  0.000981  0.508909  1.000000  0.000000
 -0.000299  0.120457  0.000000  1.000000
    2
 0.8000000 0.2000000
  1.000000  0.000000
  0.000000  1.000000
************************************************************************
/Zr.Raf-r.Wahlgren.17s13p9d2f.7s6p4d2f.
U. Wahlgren
Knut Faegri, University of Oslo.
************************************************************************
*Zr.Raf-r.Wahlgren.17s13p9d2f.7s6p4d2f.
*Relativistic basis set
************************************************************************
      40.00000000
   17
 477424.51 72179.137 16972.038 5045.9795 1728.6244 663.01410 274.52888 118.95280
 44.331005 19.458012 6.4365559 3.1369765 1.6769577 0.7579437 0.3525160 0.0729837
 0.0286308
 -0.002774 -0.000918  0.000382 -0.000144  0.000041  0.000000  0.000000
 -0.008548 -0.002846  0.001188 -0.000449  0.000126  0.000000  0.000000
 -0.025231 -0.008560  0.003570 -0.001348  0.000380  0.000000  0.000000
 -0.070051 -0.024278  0.010232 -0.003869  0.001090  0.000000  0.000000
 -0.174795 -0.065875  0.027724 -0.010484  0.002959  0.000000  0.000000
 -0.331762 -0.141619  0.062031 -0.023614  0.006645  0.000000  0.000000
 -0.380952 -0.233318  0.103609 -0.039567  0.011222  0.000000  0.000000
 -0.166212 -0.064712  0.036224 -0.014372  0.003945  0.000000  0.000000
 -0.009898  0.573333 -0.416773  0.173430 -0.049167  0.000000  0.000000
  0.000788  0.530545 -0.488493  0.216310 -0.063469  0.000000  0.000000
 -0.000211  0.067156  0.650445 -0.384940  0.120923  0.000000  0.000000
  0.000240 -0.026172  0.580791 -0.636230  0.195916  0.000000  0.000000
 -0.000146  0.014517  0.080693  0.116718 -0.020340  0.000000  0.000000
  0.000057 -0.005704  0.006858  0.798833 -0.408291  0.000000  0.000000
 -0.000020  0.001831  0.000114  0.433721 -0.292392  1.000000  0.000000
  0.000004 -0.000388 -0.000001  0.006674  0.874232  0.000000  0.000000
 -0.000002  0.000155 -0.000037 -0.008294  0.329513  0.000000  1.000000
   13
 4271.1765 1013.3501 327.97906 124.97249 52.676555 23.613474 9.8279363 4.2470841
 1.6539778 0.7124577 0.2757173 0.1070000 0.0413000
  0.004145 -0.001788  0.000618  0.000000  0.000000  0.000000
  0.023857 -0.010355  0.003581  0.000000  0.000000  0.000000
  0.101535 -0.045803  0.015951  0.000000  0.000000  0.000000
  0.279200 -0.131357  0.046001  0.000000  0.000000  0.000000
  0.434807 -0.224723  0.080213  0.000000  0.000000  0.000000
  0.296150 -0.069362  0.017584  0.000000  0.000000  0.000000
  0.053062  0.445970 -0.205500  0.000000  0.000000  0.000000
 -0.003068  0.571805 -0.301407  0.000000  0.000000  0.000000
  0.002124  0.120880  0.207333  0.000000  0.000000  0.000000
 -0.001161 -0.010939  0.666848  0.000000  0.000000  0.000000
  0.000543  0.005339  0.297671  1.000000  0.000000  0.000000
 -0.000254 -0.002301  0.005003  0.000000  1.000000  0.000000
  0.000080  0.000719  0.005054  0.000000  0.000000  1.000000
    9
 144.05409 42.117280 15.823177 6.5072003 2.7336987 0.9784641 0.3501642 0.1167122
 0.0389000
  0.026200 -0.005566  0.000000  0.000000
  0.145549 -0.031875  0.000000  0.000000
  0.353158 -0.075105  0.000000  0.000000
  0.444590 -0.094714  0.000000  0.000000
  0.260399  0.015514  0.000000  0.000000
  0.036951  0.296305  0.000000  0.000000
 -0.002970  0.471548  0.000000  0.000000
  0.001354  0.401373  1.000000  0.000000
 -0.000421  0.084696  0.000000  1.000000
    2
 0.8000000 0.2000000
  1.000000  0.000000
  0.000000  1.000000
************************************************************************
/Nb.Raf-r.Wahlgren.17s13p9d2f.7s6p4d2f.
U. Wahlgren
Knut Faegri, University of Oslo.
************************************************************************
*Nb.Raf-r.Wahlgren.17s13p9d2f.7s6p4d2f.
*Relativistic basis set
************************************************************************
      41.00000000
   17
 508254.40 78023.239 18146.384 5312.5514 1827.8845 700.01722 288.82729 127.00212
 47.257989 20.900600 6.9626339 3.4890801 1.8633746 0.8397613 0.3772728 0.0761792
 0.0300735
 -0.002830 -0.000940  0.000395 -0.000152  0.000042  0.000000  0.000000
 -0.008563 -0.002862  0.001204 -0.000464  0.000127  0.000000  0.000000
 -0.025736 -0.008766  0.003684 -0.001420  0.000390  0.000000  0.000000
 -0.070943 -0.024715  0.010490 -0.004049  0.001111  0.000000  0.000000
 -0.173755 -0.065752  0.027896 -0.010771  0.002965  0.000000  0.000000
 -0.333507 -0.143064  0.063082 -0.024514  0.006721  0.000000  0.000000
 -0.378627 -0.232654  0.104277 -0.040677  0.011260  0.000000  0.000000
 -0.165411 -0.064682  0.035980 -0.014550  0.003862  0.000000  0.000000
 -0.012709  0.562527 -0.411314  0.175007 -0.048294  0.000000  0.000000
  0.002214  0.537175 -0.499578  0.226628 -0.065083  0.000000  0.000000
 -0.001310  0.073951  0.622876 -0.378453  0.117454  0.000000  0.000000
  0.001416 -0.029898  0.591554 -0.649372  0.192063  0.000000  0.000000
 -0.000915  0.015862  0.100132  0.087192 -0.005430  0.000000  0.000000
  0.000376 -0.005952  0.005232  0.839076 -0.425970  0.000000  0.000000
 -0.000124  0.001825  0.000751  0.416400 -0.251969  1.000000  0.000000
  0.000027 -0.000404 -0.000108  0.004931  0.831085  0.000000  0.000000
 -0.000011  0.000164  0.000017 -0.005908  0.354754  0.000000  1.000000
   13
 4559.1668 1063.0662 343.15861 131.77572 55.608872 24.710731 10.1380620 4.4546940
 1.8328049 0.7947154 0.3043159 0.1165000 0.0446000
  0.004199 -0.001831  0.000651  0.000000  0.000000  0.000000
  0.024480 -0.010721  0.003813  0.000000  0.000000  0.000000
  0.102528 -0.046823  0.016770  0.000000  0.000000  0.000000
  0.278101 -0.131880  0.047514  0.000000  0.000000  0.000000
  0.437737 -0.229752  0.084380  0.000000  0.000000  0.000000
  0.296190 -0.061377  0.014417  0.000000  0.000000  0.000000
  0.049642  0.468007 -0.224785  0.000000  0.000000  0.000000
 -0.003311  0.548038 -0.301150  0.000000  0.000000  0.000000
  0.002089  0.112696  0.217077  0.000000  0.000000  0.000000
 -0.001064 -0.005764  0.670282  0.000000  0.000000  0.000000
  0.000466  0.003227  0.297433  1.000000  0.000000  0.000000
 -0.000215 -0.001315  0.001009  0.000000  1.000000  0.000000
  0.000068  0.000412  0.005816  0.000000  0.000000  1.000000
    9
 157.63758 46.377543 17.462349 7.1496748 3.0238555 1.1601931 0.4209295 0.1319146
 0.0413000
  0.025078 -0.006012  0.000000  0.000000
  0.140176 -0.034475  0.000000  0.000000
  0.350623 -0.084687  0.000000  0.000000
  0.451178 -0.106102  0.000000  0.000000
  0.257273  0.013484  0.000000  0.000000
  0.037188  0.309132  0.000000  0.000000
 -0.001353  0.506995  0.000000  0.000000
  0.000722  0.375374  1.000000  0.000000
 -0.000208  0.049913  0.000000  1.000000
    2
 0.8000000 0.2000000
  1.000000  0.000000
  0.000000  1.000000
************************************************************************
/Mo.Raf-r.Wahlgren.17s13p9d2f.7s6p4d2f.
U. Wahlgren
Knut Faegri, University of Oslo.
************************************************************************
*Mo.Raf-r.Wahlgren.17s13p9d2f.7s6p4d2f.
*Relativistic basis set
************************************************************************
      42.00000000
   17
 564811.58 84340.172 19223.887 5640.4270 1935.0108 736.03701 304.54661 134.49152
 50.361750 22.461279 7.7112170 3.9263438 1.8287531 0.8913898 0.3949647 0.0848978
 0.0323622
 -0.002825 -0.000942  0.000398 -0.000156  0.000041  0.000000  0.000000
 -0.008757 -0.002940  0.001245 -0.000488  0.000129  0.000000  0.000000
 -0.026157 -0.008948  0.003789 -0.001486  0.000394  0.000000  0.000000
 -0.070749 -0.024760  0.010576 -0.004154  0.001100  0.000000  0.000000
 -0.174696 -0.066369  0.028394 -0.011157  0.002959  0.000000  0.000000
 -0.334230 -0.144079  0.063879 -0.025257  0.006684  0.000000  0.000000
 -0.375612 -0.231212  0.104728 -0.041598  0.011082  0.000000  0.000000
 -0.166954 -0.066434  0.036186 -0.014851  0.003851  0.000000  0.000000
 -0.012975  0.552201 -0.404126  0.175163 -0.046768  0.000000  0.000000
  0.002117  0.542606 -0.513822  0.238007 -0.065543  0.000000  0.000000
 -0.001148  0.080013  0.558803 -0.344736  0.101722  0.000000  0.000000
  0.001063 -0.027590  0.656457 -0.685569  0.203099  0.000000  0.000000
 -0.000658  0.013986  0.111213  0.092050 -0.020637  0.000000  0.000000
  0.000337 -0.006767 -0.005595  0.863829 -0.409928  0.000000  0.000000
 -0.000107  0.002023  0.002980  0.376604 -0.234583  1.000000  0.000000
  0.000024 -0.000458 -0.000513  0.004043  0.734792  0.000000  0.000000
 -0.000010  0.000177  0.000181 -0.004126  0.451714  0.000000  1.000000
   13
 4706.3308 1104.2933 361.17122 139.14298 58.356511 25.821389 10.7184750 4.7732916
 2.0262457 0.8676464 0.3420828 0.1349000 0.0532000
  0.004406 -0.001939  0.000705  0.000000  0.000000  0.000000
  0.024942 -0.011034  0.004014  0.000000  0.000000  0.000000
  0.102088 -0.047054  0.017261  0.000000  0.000000  0.000000
  0.279233 -0.133854  0.049337  0.000000  0.000000  0.000000
  0.442285 -0.233903  0.088110  0.000000  0.000000  0.000000
  0.291986 -0.057107  0.012187  0.000000  0.000000  0.000000
  0.047467  0.471881 -0.232586  0.000000  0.000000  0.000000
 -0.002743  0.540346 -0.310844  0.000000  0.000000  0.000000
  0.001754  0.112431  0.231912  0.000000  0.000000  0.000000
 -0.000880 -0.003554  0.669082  0.000000  0.000000  0.000000
  0.000396  0.002665  0.287035  1.000000  0.000000  0.000000
 -0.000187 -0.001059  0.008059  0.000000  1.000000  0.000000
  0.000059  0.000331  0.004131  0.000000  0.000000  1.000000
    9
 172.75830 51.005487 19.267661 7.9229414 3.3785846 1.3293987 0.4953180 0.1589567
 0.0510000
  0.023872 -0.006215  0.000000  0.000000
  0.134891 -0.036017  0.000000  0.000000
  0.344788 -0.090717  0.000000  0.000000
  0.453149 -0.115581  0.000000  0.000000
  0.261877  0.011349  0.000000  0.000000
  0.038983  0.320897  0.000000  0.000000
 -0.001111  0.512320  0.000000  0.000000
  0.000593  0.351377  1.000000  0.000000
 -0.000193  0.044392  0.000000  1.000000
    2
 0.8000000 0.2000000
  1.000000  0.000000
  0.000000  1.000000
************************************************************************
/Tc.Raf-r.Wahlgren.17s13p9d2f.7s6p4d2f.
U. Wahlgren
Knut Faegri, University of Oslo.
************************************************************************
*Tc.Raf-r.Wahlgren.17s13p9d2f.7s6p4d2f.
*Relativistic basis set
************************************************************************
      43.00000000
   17
 600968.67 88600.264 20540.939 6011.6383 2042.3890 774.55946 320.84393 142.05931
 54.025757 24.068560 8.5619192 4.3922094 1.9025018 0.9188755 0.4062129 0.0942936
 0.0349736
 -0.002912 -0.000975  0.000415 -0.000165  0.000043  0.000000  0.000000
 -0.008954 -0.003019  0.001287 -0.000513  0.000132  0.000000  0.000000
 -0.026016 -0.008932  0.003808 -0.001518  0.000392  0.000000  0.000000
 -0.071130 -0.025023  0.010756 -0.004295  0.001109  0.000000  0.000000
 -0.175647 -0.066912  0.028839 -0.011513  0.002977  0.000000  0.000000
 -0.333821 -0.144904  0.064627 -0.025995  0.006714  0.000000  0.000000
 -0.374332 -0.229447  0.104811 -0.042255  0.010968  0.000000  0.000000
 -0.167593 -0.070818  0.038197 -0.016095  0.004110  0.000000  0.000000
 -0.013473  0.539994 -0.394881  0.174612 -0.045581  0.000000  0.000000
  0.002115  0.554009 -0.533344  0.250529 -0.067084  0.000000  0.000000
 -0.001135  0.080781  0.498923 -0.305265  0.087099  0.000000  0.000000
  0.000956 -0.021501  0.711579 -0.737952  0.216667  0.000000  0.000000
 -0.000549  0.009588  0.127758  0.124731 -0.041413  0.000000  0.000000
  0.000301 -0.004928 -0.014282  0.892351 -0.407331  0.000000  0.000000
 -0.000102  0.001547  0.005308  0.314873 -0.205689  1.000000  0.000000
  0.000024 -0.000371 -0.001058  0.004719  0.670454  0.000000  0.000000
 -0.000009  0.000135  0.000380 -0.003291  0.515974  0.000000  1.000000
   13
 4763.8664 1153.2828 381.59894 146.32863 61.119775 27.090821 11.960775 5.4577267
 2.3746029 1.0277545 0.3973802 0.1536000 0.0594000
  0.004668  0.002069  0.000769  0.000000  0.000000  0.000000
  0.024915  0.011152  0.004148  0.000000  0.000000  0.000000
  0.101952  0.047247  0.017703  0.000000  0.000000  0.000000
  0.281885  0.137172  0.051740  0.000000  0.000000  0.000000
  0.444462  0.234396  0.090122  0.000000  0.000000  0.000000
  0.285896  0.063575  0.015281  0.000000  0.000000  0.000000
  0.046228 -0.431963 -0.217399  0.000000  0.000000  0.000000
  0.000511 -0.557580 -0.329307  0.000000  0.000000  0.000000
  0.000307 -0.140615  0.170571  0.000000  0.000000  0.000000
 -0.000121  0.003185  0.681837  0.000000  0.000000  0.000000
  0.000019 -0.003208  0.326463  1.000000  0.000000  0.000000
 -0.000013  0.001269  0.006439  0.000000  1.000000  0.000000
  0.000003 -0.000404  0.005674  0.000000  0.000000  1.000000
    9
 188.85753 55.900549 20.995532 8.6920652 3.7865863 1.5703613 0.6088450 0.2077569
 0.0709000
  0.022647 -0.006247  0.000000  0.000000
  0.130911 -0.036934  0.000000  0.000000
  0.343019 -0.095985  0.000000  0.000000
  0.449483 -0.120463  0.000000  0.000000
  0.263779  0.004104  0.000000  0.000000
  0.043786  0.306460  0.000000  0.000000
 -0.000206  0.493842  0.000000  0.000000
  0.000603  0.357409  1.000000  0.000000
 -0.000135  0.076019  0.000000  1.000000
    2
 0.8000000 0.2000000
  1.000000  0.000000
  0.000000  1.000000
************************************************************************
/Ru.Raf-r.Wahlgren.17s13p9d2f.7s6p4d2f.
U. Wahlgren
Knut Faegri, University of Oslo.
************************************************************************
*Ru.Raf-r.Wahlgren.17s13p9d2f.7s6p4d2f.
*Relativistic basis set
************************************************************************
      44.00000000
   17
 615367.62 94409.177 21987.091 6390.4266 2154.8015 815.70030 338.18301 149.50385
 57.491285 25.654515 9.3493288 4.6821127 1.8405177 0.9336715 0.4130479 0.1012731
 0.0367755
 -0.003029 -0.001019 -0.000436  0.000176  0.000044  0.000000  0.000000
 -0.008940 -0.003027 -0.001298  0.000525  0.000131  0.000000  0.000000
 -0.026142 -0.009010 -0.003866  0.001563  0.000391  0.000000  0.000000
 -0.071470 -0.025262 -0.010921  0.004421  0.001105  0.000000  0.000000
 -0.176289 -0.067393 -0.029259  0.011852  0.002966  0.000000  0.000000
 -0.332733 -0.145145 -0.065060  0.026515  0.006629  0.000000  0.000000
 -0.374020 -0.228735 -0.105450  0.043208  0.010853  0.000000  0.000000
 -0.168673 -0.073364 -0.038961  0.016441  0.004065  0.000000  0.000000
 -0.013333  0.532111  0.389008 -0.174073 -0.043996  0.000000  0.000000
  0.001820  0.560196  0.548645 -0.263675 -0.068337  0.000000  0.000000
 -0.000865  0.081892 -0.478136  0.303763  0.083760  0.000000  0.000000
  0.000665 -0.017813 -0.755520  0.772674  0.220866  0.000000  0.000000
 -0.000390  0.008088 -0.114836 -0.222710 -0.079696  0.000000  0.000000
  0.000244 -0.004835  0.019762 -0.865165 -0.384312  0.000000  0.000000
 -0.000083  0.001524 -0.006055 -0.264729 -0.177400  1.000000  0.000000
  0.000020 -0.000371  0.001191 -0.002862  0.624740  0.000000  0.000000
 -0.000007  0.000129 -0.000410  0.001749  0.557416  0.000000  1.000000
   13
 4964.2720 1219.4814 401.99193 153.22816 64.092077 28.589423 12.658782 5.7501607
 2.4779020 1.0817720 0.4203750 0.1634000 0.0635000
  0.004773  0.002133  0.000807  0.000000  0.000000  0.000000
  0.024800  0.011199  0.004244  0.000000  0.000000  0.000000
  0.102849  0.048044  0.018329  0.000000  0.000000  0.000000
  0.284366  0.139763  0.053762  0.000000  0.000000  0.000000
  0.442593  0.235150  0.092019  0.000000  0.000000  0.000000
  0.283725  0.063361  0.015636  0.000000  0.000000  0.000000
  0.047221 -0.438620 -0.227803  0.000000  0.000000  0.000000
  0.000004 -0.561012 -0.336507  0.000000  0.000000  0.000000
  0.000546 -0.130641  0.205517  0.000000  0.000000  0.000000
 -0.000270  0.003265  0.679785  0.000000  0.000000  0.000000
  0.000085 -0.002946  0.304781  1.000000  0.000000  0.000000
 -0.000044  0.001114  0.004434  0.000000  1.000000  0.000000
  0.000013 -0.000352  0.005391  0.000000  0.000000  1.000000
    9
 206.11199 61.040573 23.141487 9.5597344 4.0874066 1.6811377 0.6628733 0.2302877
 0.0800000
  0.021675 -0.006265  0.000000  0.000000
  0.125658 -0.037233  0.000000  0.000000
  0.334216 -0.098092  0.000000  0.000000
  0.459387 -0.130080  0.000000  0.000000
  0.270011  0.010098  0.000000  0.000000
  0.039249  0.327546  0.000000  0.000000
  0.000699  0.486082  0.000000  0.000000
  0.000296  0.339643  1.000000  0.000000
  0.000013  0.071709  0.000000  1.000000
    2
 0.8000000 0.2000000
  1.000000  0.000000
  0.000000  1.000000
************************************************************************
/Rh.Raf-r.Wahlgren.17s13p9d2f.7s6p4d2f.
U. Wahlgren
Knut Faegri, University of Oslo.
************************************************************************
*Rh.Raf-r.Wahlgren.17s13p9d2f.7s6p4d2f.
*Relativistic basis set
************************************************************************
      45.00000000
   17
 666938.46 101663.95 23507.471 6770.9733 2274.1640 860.12987 356.22922 157.23074
 60.823076 27.200755 9.9950277 5.0587150 2.0451786 1.0271646 0.4537890 0.1073217
 0.0386400
 -0.003058 -0.001032  0.000445  0.000182  0.000044  0.000000  0.000000
 -0.009017 -0.003065  0.001322  0.000541  0.000131  0.000000  0.000000
 -0.026348 -0.009116  0.003935  0.001610  0.000389  0.000000  0.000000
 -0.071916 -0.025534  0.011103  0.004550  0.001098  0.000000  0.000000
 -0.176115 -0.067583  0.029525  0.012109  0.002927  0.000000  0.000000
 -0.331738 -0.145245  0.065476  0.027021  0.006525  0.000000  0.000000
 -0.374341 -0.228697  0.106136  0.044036  0.010681  0.000000  0.000000
 -0.169618 -0.074590  0.039580  0.016922  0.004048  0.000000  0.000000
 -0.013408  0.527590 -0.387935 -0.176076 -0.043012  0.000000  0.000000
  0.001738  0.563044 -0.555352 -0.270805 -0.067777  0.000000  0.000000
 -0.000828  0.084832  0.463758  0.299351  0.079753  0.000000  0.000000
  0.000646 -0.018659  0.763232  0.791217  0.218996  0.000000  0.000000
 -0.000370  0.008266  0.122071 -0.203102 -0.073232  0.000000  0.000000
  0.000221 -0.004717 -0.018085 -0.877035 -0.365660  0.000000  0.000000
 -0.000074  0.001454  0.005696 -0.275555 -0.180067  1.000000  0.000000
  0.000017 -0.000342 -0.001065 -0.004194  0.579004  0.000000  0.000000
 -0.000006  0.000122  0.000376  0.001372  0.594058  0.000000  1.000000
   13
 5411.7578 1296.6564 420.90869 160.23018 67.515001 30.400995 13.622169 6.2537290
 2.7461248 1.1965637 0.4643507 0.1190000 0.0387000
  0.004683 -0.002109  0.000811  0.000000  0.000000  0.000000
  0.025017 -0.011389  0.004386  0.000000  0.000000  0.000000
  0.104425 -0.049167  0.019068  0.000000  0.000000  0.000000
  0.284794 -0.141264  0.055240  0.000000  0.000000  0.000000
  0.437904 -0.234326  0.093282  0.000000  0.000000  0.000000
  0.283775 -0.067286  0.017416  0.000000  0.000000  0.000000
  0.049683  0.427061 -0.226227  0.000000  0.000000  0.000000
  0.000034  0.564721 -0.347125  0.000000  0.000000  0.000000
  0.000582  0.138942  0.192188  0.000000  0.000000  0.000000
 -0.000278 -0.001322  0.685593  0.000000  0.000000  0.000000
  0.000060  0.002067  0.312400  1.000000  0.000000  0.000000
 -0.000023 -0.000456  0.009972  0.000000  1.000000  0.000000
  0.000008  0.000167 -0.000006  0.000000  0.000000  1.000000
    9
 224.17203 66.353851 25.119330 10.373975 4.4478314 1.8266017 0.7142059 0.2461368
 0.0762000
  0.020725 -0.006235  0.000000  0.000000
  0.122007 -0.037639  0.000000  0.000000
  0.331475 -0.101431  0.000000  0.000000
  0.461981 -0.136418  0.000000  0.000000
  0.272146  0.011766  0.000000  0.000000
  0.039412  0.345187  0.000000  0.000000
  0.000634  0.489795  0.000000  0.000000
  0.000442  0.328177  1.000000  0.000000
  0.000008  0.059611  0.000000  1.000000
    2
 0.8000000 0.2000000
  1.000000  0.000000
  0.000000  1.000000
************************************************************************
/Pd.Raf-r.Wahlgren.17s13p9d2f.7s6p4d2f.
U. Wahlgren
Knut Faegri, University of Oslo.
************************************************************************
*Pd.Raf-r.Wahlgren.17s13p9d2f.7s6p4d2f.
*Relativistic basis set
************************************************************************
      46.00000000
   17
 722049.07 109352.60 25013.151 7155.5559 2398.1500 905.94369 374.64803 165.14908
 64.119284 28.719757 10.579348 5.4118888 2.2499606 1.1164742 0.4844827 0.1124708
 0.0400674
 -0.003086 -0.001046  0.000453  0.000187  0.000044  0.000000  0.000000
 -0.009116 -0.003111  0.001350  0.000558  0.000130  0.000000  0.000000
 -0.026667 -0.009263  0.004022  0.001664  0.000388  0.000000  0.000000
 -0.072298 -0.025784  0.011275  0.004672  0.001088  0.000000  0.000000
 -0.175879 -0.067757  0.029772  0.012348  0.002879  0.000000  0.000000
 -0.331012 -0.145427  0.065927  0.027508  0.006409  0.000000  0.000000
 -0.374607 -0.228820  0.106816  0.044834  0.010490  0.000000  0.000000
 -0.170363 -0.075053  0.039916  0.017221  0.003977  0.000000  0.000000
 -0.013520  0.525162 -0.389038 -0.178744 -0.042145  0.000000  0.000000
  0.001711  0.564465 -0.559529 -0.276846 -0.066869  0.000000  0.000000
 -0.000825  0.086840  0.461088  0.304302  0.078345  0.000000  0.000000
  0.000655 -0.019817  0.761963  0.801855  0.214517  0.000000  0.000000
 -0.000366  0.008553  0.126003 -0.193221 -0.069409  0.000000  0.000000
  0.000207 -0.004608 -0.015549 -0.892607 -0.351856  0.000000  0.000000
 -0.000067  0.001380  0.005094 -0.276694 -0.177453  1.000000  0.000000
  0.000016 -0.000326 -0.000947 -0.003054  0.546757  0.000000  0.000000
 -0.000006  0.000118  0.000339  0.000388  0.618991  0.000000  1.000000
   13
 5641.5992 1369.8311 439.60614 167.49952 71.086943 32.278302 14.665368 6.8062951
 3.0304099 1.3134192 0.5082798 0.1100000 0.0400000
  0.004756 -0.002157  0.000842  0.000000  0.000000  0.000000
  0.025099 -0.011516  0.004499  0.000000  0.000000  0.000000
  0.106125 -0.050344  0.019814  0.000000  0.000000  0.000000
  0.284430 -0.142325  0.056462  0.000000  0.000000  0.000000
  0.433915 -0.233670  0.094497  0.000000  0.000000  0.000000
  0.283608 -0.071294  0.019153  0.000000  0.000000  0.000000
  0.052195  0.413359 -0.222424  0.000000  0.000000  0.000000
  0.000178  0.569134 -0.358145  0.000000  0.000000  0.000000
  0.000602  0.149285  0.179490  0.000000  0.000000  0.000000
 -0.000292 -0.000220  0.691520  0.000000  0.000000  0.000000
  0.000056  0.001969  0.319083  1.000000  0.000000  0.000000
 -0.000022 -0.000390  0.010936  0.000000  1.000000  0.000000
  0.000009  0.000168 -0.001448  0.000000  0.000000  1.000000
    9
 242.47077 71.709317 27.050913 11.168119 4.7897946 1.9901245 0.7794551 0.2660231
 0.0900000
  0.019932 -0.006210  0.000000  0.000000
  0.119348 -0.038123  0.000000  0.000000
  0.330351 -0.104884  0.000000  0.000000
  0.464663 -0.141964  0.000000  0.000000
  0.272459  0.013964  0.000000  0.000000
  0.038228  0.353425  0.000000  0.000000
  0.001430  0.493928  0.000000  0.000000
  0.000379  0.315221  1.000000  0.000000
  0.000093  0.053641  0.000000  1.000000
    2
 0.8000000 0.2000000
  1.000000  0.000000
  0.000000  1.000000
************************************************************************
/Hf.Raf-r.Wahlgren.22s18p14d9f.8s7p5d3f.
U. Wahlgren
Knut Faegri, University of Oslo.
************************************************************************
*Hf.Raf-r.Wahlgren.22s18p14d9f.8s7p5d3f.
*Relativistic basis set
************************************************************************
      72.00000000
   22    8
  32424058.0
  4855383.30
  1104952.80
  312966.120
  102095.990
  36853.5750
  14370.5330
  5957.48470
  2595.56110
  1177.32810
  548.243750
  242.844390
  124.110450
  62.7321020
  28.1192780
  14.6727550
  6.23300520
  3.03522120
  1.11110000
 0.504770000
 0.101310000
0.0405320000
  0.001035  0.000389 -0.000184 -0.000090  0.000035 -0.000010  0.       0.
  0.002517  0.000948 -0.000449 -0.000219  0.000086 -0.000024  0.       0.
  0.005874  0.002221 -0.001051 -0.000513  0.000203 -0.000057  0.       0.
  0.012289  0.004686 -0.002222 -0.001085  0.000429 -0.000121  0.       0.
  0.024965  0.009631 -0.004570 -0.002234  0.000882 -0.000250  0.       0.
  0.048976  0.019352 -0.009240 -0.004516  0.001785 -0.000506  0.       0.
  0.094038  0.038380 -0.018344 -0.008994  0.003554 -0.001005  0.       0.
  0.170974  0.074813 -0.036440 -0.017856  0.007070 -0.002004  0.       0.
  0.273882  0.132540 -0.064944 -0.032139  0.012707 -0.003591  0.       0.
  0.325381  0.193456 -0.100518 -0.049712  0.019778 -0.005620  0.       0.
  0.211961  0.116143 -0.055806 -0.028518  0.011183 -0.003125  0.       0.
  0.040398 -0.267694  0.193465  0.108420 -0.043582  0.012266  0.       0.
 -0.003569 -0.561129  0.582915  0.334477 -0.138565  0.039719  0.       0.
  0.001838 -0.316739  0.257318  0.174293 -0.071909  0.020052  0.       0.
 -0.000995 -0.022992 -0.818744 -0.885957  0.414277 -0.119140  0.       0.
  0.000554 -0.000215 -0.510079 -0.572229  0.287477 -0.086028  0.       0.
 -0.000257  0.000881 -0.057059  0.935408 -0.699838  0.220072  0.       0.
  0.000135 -0.000441  0.010558  0.575003 -0.584558  0.190545  0.       0.
 -0.000054  0.000197 -0.004032  0.022953  0.711383 -0.281288  0.       0.
  0.000022 -0.000090  0.001727 -0.000881  0.684246 -0.499006  1.       0.
 -0.000006  0.000022 -0.000417  0.000117  0.033824  0.704167  0.       0.
  0.000002 -0.000010  0.000182 -0.000095 -0.018309  0.519429  0.       1.
   18    7
  79151.9920
  18743.6420
  6086.29380
  2326.89810
  986.850160
  449.851090
  215.661700
  107.029070
  53.4099670
  27.5160100
  14.2065150
  6.97779270
  3.36274140
  1.36815590
 0.611904400
 0.247336010
0.0723667500
0.0289515600
  0.001495 -0.000759  0.000366 -0.000129  0.       0.       0.
  0.004400 -0.002250  0.001087 -0.000383  0.       0.       0.
  0.014551 -0.007516  0.003641 -0.001281  0.       0.       0.
  0.043019 -0.022605  0.010980 -0.003876  0.       0.       0.
  0.115840 -0.062840  0.030806 -0.010855  0.       0.       0.
  0.248361 -0.141216  0.069858 -0.024787  0.       0.       0.
  0.371596 -0.222712  0.112188 -0.039618  0.       0.       0.
  0.301922 -0.125175  0.052354 -0.018327  0.       0.       0.
  0.093188  0.291388 -0.216732  0.084343  0.       0.       0.
  0.003139  0.568021 -0.463442  0.178216  0.       0.       0.
  0.001410  0.263002 -0.005031 -0.016461  0.       0.       0.
 -0.000789  0.026520  0.654040 -0.359486  0.       0.       0.
  0.000300  0.000673  0.459440 -0.238349  0.       0.       0.
 -0.000145  0.000113  0.050520  0.406895  0.       0.       0.
  0.000076 -0.000040 -0.003827  0.608261  0.       0.       0.
 -0.000029  0.000009  0.001358  0.196565  1.       0.       0.
  0.000010 -0.000004 -0.000436  0.003004  0.       1.       0.
 -0.000004  0.000001  0.000166  0.001379  0.       0.       1.
   14    5
  3406.96200
  1030.26910
  402.024860
  177.627420
  84.4802770
  41.7879320
  21.1860450
  10.5584660
  5.11639820
  2.37284930
 0.900737810
 0.332610890
 0.111206640
0.0371800000
  0.001241  0.000609  0.000115  0.       0.
  0.008225  0.004081  0.000782  0.       0.
  0.038609  0.019264  0.003648  0.       0.
  0.127420  0.065123  0.012542  0.       0.
  0.286632  0.146674  0.027782  0.       0.
  0.400492  0.193566  0.037417  0.       0.
  0.281101  0.016671 -0.003404  0.       0.
  0.073190 -0.364775 -0.080411  0.       0.
  0.003977 -0.499036 -0.118250  0.       0.
  0.000763 -0.244343  0.016795  0.       0.
 -0.000066 -0.027714  0.274965  0.       0.
  0.000053  0.001758  0.462597  0.       0.
 -0.000021 -0.000813  0.424275  1.       0.
  0.000007  0.000253  0.094458  0.       1.
    9    1
  267.050040
  92.1161190
  38.5570520
  17.4855480
  8.11797810
  3.68952190
  1.58669690
 0.605072570
 0.230740000
  0.003335  0.       0.
  0.024733  0.       0.
  0.095125  0.       0.
  0.229046  0.       0.
  0.344926  0.       0.
  0.353820  0.       0.
  0.250865  0.       0.
  0.099419  1.       0.
  0.010890  0.       1.


************************************************************************
/Ta.Raf-r.Wahlgren.22s18p14d9f.8s7p5d3f.
U. Wahlgren
Knut Faegri, University of Oslo.
************************************************************************
*Ta.Raf-r.Wahlgren.22s18p14d9f.8s7p5d3f.
*Relativistic basis set
************************************************************************
      73.00000000
   22
 33528956. 5020849.5 1142610.1 323632.38 105575.55 38109.566 14860.252 6160.4700
 2683.9675 1217.4061 566.96048 251.73110 128.65628 65.018662 29.156005 15.233843
 6.4926650 3.1826500 1.1915850 0.5435700 0.1104530 0.0434940
  0.001073  0.000405 -0.000192 -0.000094  0.000038 -0.000011  0.000000  0.000000
  0.002599  0.000983 -0.000466 -0.000228  0.000092 -0.000026  0.000000  0.000000
  0.006042  0.002295 -0.001088 -0.000533  0.000214 -0.000061  0.000000  0.000000
  0.012588  0.004822 -0.002291 -0.001122  0.000450 -0.000129  0.000000  0.000000
  0.025458  0.009867 -0.004691 -0.002300  0.000923 -0.000264  0.000000  0.000000
  0.049682  0.019722 -0.009436 -0.004627  0.001857 -0.000532  0.000000  0.000000
  0.094855  0.038901 -0.018632 -0.009164  0.003676 -0.001052  0.000000  0.000000
  0.171474  0.075369 -0.036788 -0.018087  0.007270 -0.002083  0.000000  0.000000
  0.273436  0.132826 -0.065213 -0.032371  0.012993 -0.003716  0.000000  0.000000
  0.324251  0.192874 -0.100401 -0.049826  0.020124 -0.005776  0.000000  0.000000
  0.211684  0.114920 -0.055003 -0.028146  0.011200 -0.003183  0.000000  0.000000
  0.040716 -0.266904  0.193530  0.108797 -0.044418  0.012700  0.000000  0.000000
 -0.003466 -0.560337  0.583221  0.336214 -0.141470  0.040888  0.000000  0.000000
  0.001803 -0.317559  0.257312  0.174110 -0.072937  0.020822  0.000000  0.000000
 -0.000980 -0.023017 -0.819514 -0.891408  0.424132 -0.124069  0.000000  0.000000
  0.000549 -0.000273 -0.508755 -0.571508  0.292075 -0.087523  0.000000  0.000000
 -0.000259  0.000934 -0.058141  0.934425 -0.713981  0.225919  0.000000  0.000000
  0.000139 -0.000481  0.011193  0.577009 -0.602559  0.203999  0.000000  0.000000
 -0.000056  0.000215 -0.004305  0.023813  0.723573 -0.305815  0.000000  0.000000
  0.000023 -0.000096  0.001817 -0.000823  0.687235 -0.482162  1.000000  0.000000
 -0.000006  0.000023 -0.000429  0.000117  0.035469  0.667574  0.000000  0.000000
  0.000002 -0.000010  0.000184 -0.000096 -0.017162  0.551794  0.000000  1.000000
   18
 82480.166 19531.519 6342.1772 2424.8420 1028.4842 468.91951 224.87669 111.67349
 55.844296 28.806149 14.901702 7.3264180 3.5472060 1.4601490 0.6587820 0.2671990
 0.0788950 0.0310670
  0.001526 -0.000777  0.000377 -0.000135  0.000000  0.000000  0.000000
  0.004446 -0.002280  0.001106 -0.000398  0.000000  0.000000  0.000000
  0.014588 -0.007557  0.003676 -0.001322  0.000000  0.000000  0.000000
  0.042810 -0.022561  0.011004 -0.003970  0.000000  0.000000  0.000000
  0.114866 -0.062466  0.030752 -0.011076  0.000000  0.000000  0.000000
  0.246237 -0.140319  0.069696 -0.025276  0.000000  0.000000  0.000000
  0.370167 -0.222229  0.112414 -0.040586  0.000000  0.000000  0.000000
  0.304006 -0.128687  0.054582 -0.019534  0.000000  0.000000  0.000000
  0.095804  0.283927 -0.212685  0.084717  0.000000  0.000000  0.000000
  0.003585  0.567940 -0.465531  0.183339  0.000000  0.000000  0.000000
  0.001404  0.269415 -0.016254 -0.012141  0.000000  0.000000  0.000000
 -0.000792  0.028223  0.650903 -0.367493  0.000000  0.000000  0.000000
  0.000306  0.000562  0.466396 -0.251193  0.000000  0.000000  0.000000
 -0.000149  0.000156  0.052430  0.414261  0.000000  0.000000  0.000000
  0.000078 -0.000067 -0.003859  0.610055  0.000000  0.000000  0.000000
 -0.000029  0.000017  0.001371  0.193116  1.000000  0.000000  0.000000
  0.000011 -0.000007 -0.000428  0.003109  0.000000  1.000000  0.000000
 -0.000004  0.000003  0.000159  0.001283  0.000000  0.000000  1.000000
   14
 3517.9960 1063.9153 415.19613 183.49294 87.305572 43.216957 21.931149 10.9479910
 5.3237120 2.4917690 0.9726730 0.3702180 0.1274160 0.0438000
  0.001257 -0.000622  0.000133  0.000000  0.000000
  0.008279 -0.004139  0.000894  0.000000  0.000000
  0.038744 -0.019483  0.004168  0.000000  0.000000
  0.127707 -0.065770  0.014285  0.000000  0.000000
  0.287096 -0.148071  0.031702  0.000000  0.000000
  0.400525 -0.194829  0.042380  0.000000  0.000000
  0.280174 -0.015121 -0.004247  0.000000  0.000000
  0.072845  0.367545 -0.092523  0.000000  0.000000
  0.003960  0.498168 -0.133127  0.000000  0.000000
  0.000759  0.240049  0.020534  0.000000  0.000000
 -0.000083  0.027067  0.309722  0.000000  0.000000
  0.000057 -0.001567  0.478001  0.000000  0.000000
 -0.000023  0.000727  0.375415  1.000000  0.000000
  0.000007 -0.000229  0.075777  0.000000  1.000000
    9
 289.08664 99.863847 41.963095 19.112869 8.9400900 4.1069140 1.7938850 0.6969830
 0.2708000
  0.003113  0.000000  0.000000
  0.023347  0.000000  0.000000
  0.091167  0.000000  0.000000
  0.223860  0.000000  0.000000
  0.344094  0.000000  0.000000
  0.357480  0.000000  0.000000
  0.250894  0.000000  0.000000
  0.093863  1.000000  0.000000
  0.008862  0.000000  1.000000
************************************************************************
/W.Raf-r.Wahlgren.22s18p14d9f.8s7p5d3f.
U. Wahlgren
Knut Faegri, University of Oslo.
************************************************************************
*W.Raf-r.Wahlgren.22s18p14d9f.8s7p5d3f.
*Relativistic basis set
************************************************************************
      74.00000000
   22
 34649720. 5188661.0 1180797.5 334448.33 109103.91 39383.168 15356.841 6366.3064
 2773.6198 1258.0545 585.95113 260.75427 133.26366 67.335801 30.209851 15.804638
 6.7566565 3.3346521 1.2750010 0.5823450 0.1185810 0.0460630
  0.001114  0.000422 -0.000200 -0.000098  0.000040  0.000011  0.000000  0.000000
  0.002684  0.001020 -0.000485 -0.000238  0.000097  0.000028  0.000000  0.000000
  0.006217  0.002372 -0.001127 -0.000554  0.000225  0.000064  0.000000  0.000000
  0.012897  0.004963 -0.002363 -0.001161  0.000472  0.000135  0.000000  0.000000
  0.025967  0.010112 -0.004817 -0.002370  0.000964  0.000275  0.000000  0.000000
  0.050412  0.020107 -0.009639 -0.004742  0.001930  0.000551  0.000000  0.000000
  0.095709  0.039442 -0.018930 -0.009340  0.003799  0.001083  0.000000  0.000000
  0.172023  0.075954 -0.037149 -0.018328  0.007470  0.002132  0.000000  0.000000
  0.273036  0.133139 -0.065492 -0.032613  0.013273  0.003783  0.000000  0.000000
  0.323096  0.192285 -0.100273 -0.049937  0.020453  0.005844  0.000000  0.000000
  0.211306  0.113557 -0.054108 -0.027728  0.011178  0.003173  0.000000  0.000000
  0.040991 -0.266447  0.193851  0.109337 -0.045273 -0.012923  0.000000  0.000000
 -0.003362 -0.559537  0.583582  0.338006 -0.144310 -0.041498  0.000000  0.000000
  0.001769 -0.318068  0.256730  0.173598 -0.073704 -0.021080  0.000000  0.000000
 -0.000965 -0.022979 -0.820513 -0.897414  0.433889  0.126836  0.000000  0.000000
  0.000545 -0.000345 -0.507092 -0.570143  0.296274  0.088099  0.000000  0.000000
 -0.000261  0.000994 -0.059156  0.934445 -0.729206 -0.229742  0.000000  0.000000
  0.000142 -0.000525  0.011838  0.577999 -0.617919 -0.211528  0.000000  0.000000
 -0.000057  0.000235 -0.004562  0.024648  0.736288  0.321220  0.000000  0.000000
  0.000023 -0.000103  0.001888 -0.000773  0.689241  0.461421  1.000000  0.000000
 -0.000005  0.000024 -0.000437  0.000130  0.036804 -0.619044  0.000000  0.000000
  0.000002 -0.000011  0.000185 -0.000098 -0.015929 -0.591624  0.000000  1.000000
   18
 85893.105 20339.477 6604.5910 2525.2913 1071.1872 488.47984 234.33183 116.44139
 58.346502 30.131465 15.615313 7.6851095 3.7385180 1.5562015 0.7069138 0.2876765
 0.0847013 0.0329023
  0.001558 -0.000796 -0.000387 -0.000142  0.000000  0.000000  0.000000
  0.004494 -0.002312 -0.001126 -0.000413  0.000000  0.000000  0.000000
  0.014633 -0.007601 -0.003713 -0.001362  0.000000  0.000000  0.000000
  0.042627 -0.022527 -0.011035 -0.004061  0.000000  0.000000  0.000000
  0.113951 -0.062119 -0.030713 -0.011283  0.000000  0.000000  0.000000
  0.244189 -0.139455 -0.069557 -0.025728  0.000000  0.000000  0.000000
  0.368728 -0.221719 -0.112635 -0.041485  0.000000  0.000000  0.000000
  0.305962 -0.132011 -0.056729 -0.020717  0.000000  0.000000  0.000000
  0.098388  0.276660  0.208774  0.084952  0.000000  0.000000  0.000000
  0.004049  0.567722  0.467561  0.188146  0.000000  0.000000  0.000000
  0.001394  0.275662  0.027108 -0.007705  0.000000  0.000000  0.000000
 -0.000793  0.029925 -0.647945 -0.375163  0.000000  0.000000  0.000000
  0.000311  0.000448 -0.472934 -0.263294  0.000000  0.000000  0.000000
 -0.000152  0.000198 -0.054224  0.421151  0.000000  0.000000  0.000000
  0.000080 -0.000095  0.003822  0.611305  0.000000  0.000000  0.000000
 -0.000029  0.000024 -0.001368  0.190808  1.000000  0.000000  0.000000
  0.000010 -0.000010  0.000413  0.003161  0.000000  1.000000  0.000000
 -0.000004  0.000003 -0.000152  0.001141  0.000000  0.000000  1.000000
   14
 3623.0570 1095.7500 427.65354 189.03491 89.970665 44.562617 22.630393 11.311893
 5.5172350 2.6035206 1.0440999 0.4062906 0.1426102 0.0500000
  0.001279 -0.000638  0.000149  0.000000  0.000000
  0.008367 -0.004215  0.000993  0.000000  0.000000
  0.039030 -0.019783  0.004623  0.000000  0.000000
  0.128411 -0.066652  0.015790  0.000000  0.000000
  0.288181 -0.149818  0.035055  0.000000  0.000000
  0.400728 -0.196079  0.046421  0.000000  0.000000
  0.278498 -0.012282 -0.005451  0.000000  0.000000
  0.071938  0.371992 -0.103299  0.000000  0.000000
  0.003868  0.497267 -0.144911  0.000000  0.000000
  0.000749  0.233889  0.025564  0.000000  0.000000
 -0.000097  0.025903  0.336748  0.000000  0.000000
  0.000060 -0.001344  0.487557  0.000000  0.000000
 -0.000025  0.000549  0.338534  1.000000  0.000000
  0.000008 -0.000200  0.058284  0.000000  1.000000
    9
 310.88315 107.53531 45.334826 20.725490 9.7554459 4.5220901 2.0009453 0.7890679
 0.3110000
  0.002938  0.000000  0.000000
  0.022228  0.000000  0.000000
  0.087958  0.000000  0.000000
  0.219554  0.000000  0.000000
  0.343439  0.000000  0.000000
  0.360593  0.000000  0.000000
  0.250553  0.000000  0.000000
  0.089307  1.000000  0.000000
  0.007514  0.000000  1.000000
************************************************************************
/Re.Raf-r.Wahlgren.22s18p14d9f.8s7p5d3f.
U. Wahlgren
Knut Faegri, University of Oslo.
************************************************************************
*Re.Raf-r.Wahlgren.22s18p14d9f.8s7p5d3f.
*Relativistic basis set
************************************************************************
      75.00000000
   22
 35781883. 5358191.0 1219376.2 345374.95 112668.31 40669.768 15858.497 6574.2473
 2864.1952 1299.1290 605.14844 269.87169 137.91355 69.675839 31.277318 16.382980
 7.0234690 3.4902067 1.3606976 0.6207302 0.1254466 0.0481700
  0.001156 -0.000440 -0.000209 -0.000103 -0.000043  0.000012  0.000000  0.000000
  0.002773 -0.001059 -0.000504 -0.000248 -0.000102  0.000029  0.000000  0.000000
  0.006400 -0.002453 -0.001168 -0.000576 -0.000237  0.000068  0.000000  0.000000
  0.013218 -0.005110 -0.002437 -0.001202 -0.000496  0.000142  0.000000  0.000000
  0.026497 -0.010367 -0.004948 -0.002442 -0.001007  0.000288  0.000000  0.000000
  0.051172 -0.020507 -0.009850 -0.004862 -0.002006  0.000573  0.000000  0.000000
  0.096607 -0.040008 -0.019239 -0.009524 -0.003927  0.001122  0.000000  0.000000
  0.172633 -0.076574 -0.037528 -0.018578 -0.007676  0.002195  0.000000  0.000000
  0.272692 -0.133488 -0.065786 -0.032866 -0.013560  0.003875  0.000000  0.000000
  0.321912 -0.191692 -0.100138 -0.050046 -0.020779  0.005948  0.000000  0.000000
  0.210806 -0.112020 -0.053101 -0.027253 -0.011133  0.003174  0.000000  0.000000
  0.041207  0.266406  0.194500  0.110081  0.046235 -0.013252  0.000000  0.000000
 -0.003257  0.558712  0.584031  0.339863  0.147173 -0.042376  0.000000  0.000000
  0.001731  0.318197  0.255417  0.172656  0.074323 -0.021411  0.000000  0.000000
 -0.000948  0.022873 -0.821858 -0.904172 -0.444290  0.130553  0.000000  0.000000
  0.000538  0.000424 -0.504956 -0.567768 -0.299726  0.089041  0.000000  0.000000
 -0.000261 -0.001054 -0.060068  0.935690  0.745578 -0.235536  0.000000  0.000000
  0.000144  0.000570  0.012489  0.577664  0.632638 -0.220012  0.000000  0.000000
 -0.000058 -0.000254 -0.004801  0.025458 -0.753891  0.340275  0.000000  0.000000
  0.000023  0.000108  0.001940 -0.000748 -0.688315  0.444861  1.000000  0.000000
 -0.000005 -0.000025 -0.000437  0.000147 -0.036065 -0.607634  0.000000  0.000000
  0.000002  0.000010  0.000184 -0.000098  0.014016 -0.597978  0.000000  1.000000
   18
 89387.680 21166.723 6873.2593 2628.1327 1114.9079 508.50757 244.01522 121.32689
 60.913247 31.490174 16.346398 8.0534278 3.9363581 1.6561564 0.7562729 0.3088278
 0.0896047 0.0344071
  0.001592 -0.000815 -0.000398  0.000149  0.000000  0.000000  0.000000
  0.004545 -0.002344 -0.001147  0.000429  0.000000  0.000000  0.000000
  0.014687 -0.007650 -0.003754  0.001404  0.000000  0.000000  0.000000
  0.042469 -0.022506 -0.011073  0.004155  0.000000  0.000000  0.000000
  0.113099 -0.061802 -0.030689  0.011498  0.000000  0.000000  0.000000
  0.242231 -0.138631 -0.069441  0.026190  0.000000  0.000000  0.000000
  0.367288 -0.221193 -0.112853  0.042393  0.000000  0.000000  0.000000
  0.307781 -0.135132 -0.058779  0.021892  0.000000  0.000000  0.000000
  0.100922  0.269639  0.205020 -0.085198  0.000000  0.000000  0.000000
  0.004529  0.567375  0.469524 -0.193027  0.000000  0.000000  0.000000
  0.001382  0.281698  0.037518  0.003329  0.000000  0.000000  0.000000
 -0.000792  0.031614 -0.645135  0.383015  0.000000  0.000000  0.000000
  0.000315  0.000332 -0.479041  0.275443  0.000000  0.000000  0.000000
 -0.000155  0.000241 -0.055959 -0.429177  0.000000  0.000000  0.000000
  0.000081 -0.000122  0.003758 -0.613502  0.000000  0.000000  0.000000
 -0.000029  0.000030 -0.001356 -0.186441  1.000000  0.000000  0.000000
  0.000010 -0.000012  0.000391 -0.003308  0.000000  1.000000  0.000000
 -0.000004  0.000004 -0.000144 -0.000984  0.000000  0.000000  1.000000
   14
 3733.6905 1129.2743 440.77439 194.87478 92.780865 45.982277 23.368429 11.696402
 5.7212170 2.7195064 1.1192264 0.4443915 0.1590647 0.0570000
  0.001299 -0.000653  0.000162  0.000000  0.000000
  0.008440 -0.004284  0.001073  0.000000  0.000000
  0.039241 -0.020046  0.004983  0.000000  0.000000
  0.128899 -0.067422  0.016975  0.000000  0.000000
  0.288934 -0.151394  0.037699  0.000000  0.000000
  0.400849 -0.197335  0.049572  0.000000  0.000000
  0.277257 -0.010057 -0.006584  0.000000  0.000000
  0.071309  0.375877 -0.111963  0.000000  0.000000
  0.003798  0.496735 -0.154163  0.000000  0.000000
  0.000739  0.228150  0.031969  0.000000  0.000000
 -0.000113  0.024934  0.353095  0.000000  0.000000
  0.000061 -0.000920  0.479937  0.000000  0.000000
 -0.000027  0.000514  0.320831  1.000000  0.000000
  0.000008 -0.000148  0.061572  0.000000  1.000000
    9
 332.54602 115.16694 48.687677 22.330744 10.5676594 4.9367257 2.2085295 0.8814553
 0.3500000
  0.002797  0.000000  0.000000
  0.021311  0.000000  0.000000
  0.085322  0.000000  0.000000
  0.215963  0.000000  0.000000
  0.342984  0.000000  0.000000
  0.363316  0.000000  0.000000
  0.250032  0.000000  0.000000
  0.085151  1.000000  0.000000
  0.006340  0.000000  1.000000
************************************************************************
/Os.Raf-r.Wahlgren.22s18p14d9f.8s7p5d3f.
U. Wahlgren
Knut Faegri, University of Oslo.
************************************************************************
*Os.Raf-r.Wahlgren.22s18p14d9f.8s7p5d3f.
*Relativistic basis set
************************************************************************
      76.00000000
   22
 36938369. 5531366.4 1258787.6 356538.38 116310.21 41984.416 16371.112 6786.7395
 2956.7576 1341.1089 624.77753 279.22792 142.67343 72.068012 32.369022 16.975756
 7.2975089 3.6515189 1.4508598 0.6623514 0.1342605 0.0509618
  0.001200 -0.000459 -0.000219 -0.000108  0.000045  0.000013  0.000000  0.000000
  0.002866 -0.001099 -0.000524 -0.000259  0.000108  0.000031  0.000000  0.000000
  0.006589 -0.002537 -0.001210 -0.000599  0.000250  0.000071  0.000000  0.000000
  0.013548 -0.005262 -0.002514 -0.001244  0.000519  0.000148  0.000000  0.000000
  0.027039 -0.010630 -0.005083 -0.002517  0.001051  0.000299  0.000000  0.000000
  0.051948 -0.020917 -0.010066 -0.004986  0.002083  0.000592  0.000000  0.000000
  0.097523 -0.040586 -0.019555 -0.009713  0.004055  0.001152  0.000000  0.000000
  0.173258 -0.077205 -0.037910 -0.018833  0.007880  0.002241  0.000000  0.000000
  0.272353 -0.133839 -0.066079 -0.033120  0.013837  0.003932  0.000000  0.000000
  0.320707 -0.191070 -0.099979 -0.050142  0.021084  0.006003  0.000000  0.000000
  0.210274 -0.110437 -0.052058 -0.026756  0.011056  0.003134  0.000000  0.000000
  0.041421  0.266409  0.195174  0.110844 -0.047156 -0.013440  0.000000  0.000000
 -0.003151  0.557905  0.584448  0.341715 -0.149959 -0.042959  0.000000  0.000000
  0.001696  0.318249  0.253963  0.171600 -0.074737 -0.021402  0.000000  0.000000
 -0.000934  0.022757 -0.823159 -0.910917  0.454252  0.132845  0.000000  0.000000
  0.000533  0.000507 -0.502768 -0.565406  0.303195  0.089777  0.000000  0.000000
 -0.000263 -0.001121 -0.061022  0.937261 -0.762566 -0.240701  0.000000  0.000000
  0.000147  0.000620  0.013196  0.577015 -0.644830 -0.223851  0.000000  0.000000
 -0.000060 -0.000276 -0.005077  0.026332  0.766423  0.349604  0.000000  0.000000
  0.000023  0.000115  0.002013 -0.000730  0.690189  0.431419  1.000000  0.000000
 -0.000005 -0.000026 -0.000445  0.000170  0.036751 -0.569664  0.000000  0.000000
  0.000002  0.000011  0.000185 -0.000098 -0.012696 -0.629514  0.000000  1.000000
   18
 92913.914 22001.506 7144.3897 2731.9209 1159.0342 528.72272 253.79143 126.26080
 63.505157 32.861814 17.083614 8.4257923 4.1376495 1.7579206 0.8064629 0.3298975
 0.0959004 0.0364013
  0.001627 -0.000835 -0.000410  0.000156  0.000000  0.000000  0.000000
  0.004602 -0.002380 -0.001169  0.000446  0.000000  0.000000  0.000000
  0.014759 -0.007708 -0.003799  0.001446  0.000000  0.000000  0.000000
  0.042366 -0.022513 -0.011125  0.004248  0.000000  0.000000  0.000000
  0.112380 -0.061555 -0.030701  0.011706  0.000000  0.000000  0.000000
  0.240476 -0.137919 -0.069382  0.026631  0.000000  0.000000  0.000000
  0.365917 -0.220696 -0.113086  0.043234  0.000000  0.000000  0.000000
  0.309347 -0.137862 -0.060616  0.022989  0.000000  0.000000  0.000000
  0.103258  0.263315  0.201758 -0.085482  0.000000  0.000000  0.000000
  0.004993  0.566926  0.471431 -0.197530  0.000000  0.000000  0.000000
  0.001368  0.287142  0.046794 -0.000818  0.000000  0.000000  0.000000
 -0.000791  0.033181 -0.642840  0.390840  0.000000  0.000000  0.000000
  0.000318  0.000218 -0.484249  0.286053  0.000000  0.000000  0.000000
 -0.000157  0.000281 -0.057439 -0.436853  0.000000  0.000000  0.000000
  0.000082 -0.000149  0.003660 -0.614926  0.000000  0.000000  0.000000
 -0.000029  0.000037 -0.001346 -0.183084  1.000000  0.000000  0.000000
  0.000010 -0.000015  0.000377 -0.003154  0.000000  1.000000  0.000000
 -0.000004  0.000005 -0.000137 -0.000974  0.000000  0.000000  1.000000
   14
 3778.9937 1142.9783 446.08995 197.18691 93.851519 46.500940 23.614672 11.808212
 5.7775438 2.7543477 1.1612866 0.4641208 0.1663104 0.0590000
  0.001362 -0.000690  0.000180  0.000000  0.000000
  0.008797 -0.004499  0.001186  0.000000  0.000000
  0.040697 -0.020961  0.005498  0.000000  0.000000
  0.132861 -0.070058  0.018577  0.000000  0.000000
  0.294855 -0.155657  0.040911  0.000000  0.000000
  0.402150 -0.197958  0.052187  0.000000  0.000000
  0.269572  0.003080 -0.010979  0.000000  0.000000
  0.066242  0.391607 -0.124081  0.000000  0.000000
  0.003260  0.492887 -0.160284  0.000000  0.000000
  0.000687  0.210565  0.049206  0.000000  0.000000
 -0.000122  0.021031  0.377366  0.000000  0.000000
  0.000057 -0.000278  0.477764  0.000000  0.000000
 -0.000027  0.000337  0.295472  1.000000  0.000000
  0.000008 -0.000064  0.049686  0.000000  1.000000
    9
 354.42137 122.88051 52.076034 23.954962 11.390410 5.3579029 2.4204354 0.9765784
 0.3969000
  0.002677  0.000000  0.000000
  0.020511  0.000000  0.000000
  0.083001  0.000000  0.000000
  0.212714  0.000000  0.000000
  0.342499  0.000000  0.000000
  0.365718  0.000000  0.000000
  0.249501  0.000000  0.000000
  0.081716  1.000000  0.000000
  0.005586  0.000000  1.000000
************************************************************************
/Ir.Raf-r.Wahlgren.22s18p14d9f.8s7p5d3f.
U. Wahlgren
Knut Faegri, University of Oslo.
************************************************************************
*Ir.Raf-r.Wahlgren.22s18p14d9f.8s7p5d3f.
*Relativistic basis set
************************************************************************
      77.00000000
   22
 38103770. 5705873.4 1298500.3 367786.71 119979.75 43309.034 16887.620 7000.8507
 3050.0321 1383.4192 644.56747 288.64708 147.46239 74.477794 33.472000 17.574554
 7.5732658 3.8154529 1.5427100 0.7034500 0.1418800 0.0533100
  0.001246 -0.000479 -0.000229 -0.000113  0.000048  0.000013  0.000000  0.000000
  0.002963 -0.001142 -0.000545 -0.000271  0.000114  0.000032  0.000000  0.000000
  0.006785 -0.002625 -0.001254 -0.000623  0.000263  0.000074  0.000000  0.000000
  0.013892 -0.005421 -0.002595 -0.001288  0.000544  0.000153  0.000000  0.000000
  0.027602 -0.010904 -0.005224 -0.002595  0.001096  0.000309  0.000000  0.000000
  0.052755 -0.021345 -0.010291 -0.005114  0.002162  0.000609  0.000000  0.000000
  0.098486 -0.041190 -0.019884 -0.009909  0.004186  0.001178  0.000000  0.000000
  0.173948 -0.077874 -0.038312 -0.019099  0.008085  0.002278  0.000000  0.000000
  0.272073 -0.134227 -0.066388 -0.033384  0.014111  0.003972  0.000000  0.000000
  0.319473 -0.190445 -0.099813 -0.050234  0.021374  0.006028  0.000000  0.000000
  0.209612 -0.108660 -0.050888 -0.026191  0.010937  0.003069  0.000000  0.000000
  0.041568  0.266869  0.196211  0.111829 -0.048150 -0.013594  0.000000  0.000000
 -0.003046  0.557055  0.584957  0.343621 -0.152688 -0.043342  0.000000  0.000000
  0.001660  0.317897  0.251705  0.170035 -0.074859 -0.021227  0.000000  0.000000
 -0.000917  0.022563 -0.824864 -0.918453  0.464464  0.134652  0.000000  0.000000
  0.000527  0.000600 -0.500043 -0.561817  0.305732  0.089855  0.000000  0.000000
 -0.000263 -0.001191 -0.061849  0.940099 -0.780687 -0.245212  0.000000  0.000000
  0.000150  0.000673  0.013901  0.574924 -0.654498 -0.225728  0.000000  0.000000
 -0.000061 -0.000297 -0.005336  0.027159  0.780659  0.357597  0.000000  0.000000
  0.000023  0.000121  0.002069 -0.000728  0.690410  0.416206  1.000000  0.000000
 -0.000005 -0.000027 -0.000449  0.000198  0.036647 -0.539044  0.000000  0.000000
  0.000002  0.000011  0.000184 -0.000098 -0.011378 -0.652908  0.000000  1.000000
   18
 96509.599 22852.713 7420.8476 2837.7472 1204.0279 549.33635 263.76229 131.29484
 66.151174 34.261416 17.835436 8.8063504 4.3445433 1.8630329 0.8577347 0.3515711
 0.1013436 0.0380797
  0.001664 -0.000856  0.000422 -0.000163  0.000000  0.000000  0.000000
  0.004661 -0.002417  0.001193 -0.000462  0.000000  0.000000  0.000000
  0.014841 -0.007772  0.003847 -0.001488  0.000000  0.000000  0.000000
  0.042292 -0.022534  0.011185 -0.004340  0.000000  0.000000  0.000000
  0.111730 -0.061343  0.030730 -0.011906  0.000000  0.000000  0.000000
  0.238824 -0.137258  0.069347 -0.027048  0.000000  0.000000  0.000000
  0.364567 -0.220199  0.113316 -0.044025  0.000000  0.000000  0.000000
  0.310773 -0.140382  0.062344 -0.024036  0.000000  0.000000  0.000000
  0.105510  0.257312 -0.198700  0.085703  0.000000  0.000000  0.000000
  0.005460  0.566392 -0.473278  0.201802  0.000000  0.000000  0.000000
  0.001352  0.292308 -0.055552  0.004860  0.000000  0.000000  0.000000
 -0.000790  0.034705  0.640753 -0.398344  0.000000  0.000000  0.000000
  0.000321  0.000104  0.489015 -0.296038  0.000000  0.000000  0.000000
 -0.000159  0.000319  0.058834  0.444238  0.000000  0.000000  0.000000
  0.000082 -0.000174 -0.003535  0.616013  0.000000  0.000000  0.000000
 -0.000029  0.000042  0.001331  0.180255  1.000000  0.000000  0.000000
  0.000010 -0.000017 -0.000360  0.003086  0.000000  1.000000  0.000000
 -0.000004  0.000006  0.000130  0.000902  0.000000  0.000000  1.000000
   14
 3841.5486 1161.9143 453.46152 200.42501 95.374454 47.251224 23.982388 11.984947
 5.8669142 2.8002273 1.2078496 0.4876331 0.1760709 0.0600000
  0.001415 -0.000722  0.000198  0.000000  0.000000
  0.009088 -0.004683  0.001290  0.000000  0.000000
  0.041849 -0.021726  0.005965  0.000000  0.000000
  0.135943 -0.072248  0.020023  0.000000  0.000000
  0.299389 -0.159229  0.043834  0.000000  0.000000
  0.402954 -0.198509  0.054496  0.000000  0.000000
  0.263584  0.013812 -0.014934  0.000000  0.000000
  0.062468  0.404320 -0.135275  0.000000  0.000000
  0.002884  0.489580 -0.165142  0.000000  0.000000
  0.000641  0.195918  0.066079  0.000000  0.000000
 -0.000130  0.017864  0.395631  0.000000  0.000000
  0.000053  0.000303  0.471384  0.000000  0.000000
 -0.000027  0.000216  0.276303  1.000000  0.000000
  0.000007  0.000004  0.041763  0.000000  1.000000
    9
 376.30209 130.60175 55.466119 25.581542 12.214910 5.7809072 2.6338786 1.0723483
 0.4400000
  0.002576  0.000000  0.000000
  0.019834  0.000000  0.000000
  0.081033  0.000000  0.000000
  0.209936  0.000000  0.000000
  0.342132  0.000000  0.000000
  0.367854  0.000000  0.000000
  0.248802  0.000000  0.000000
  0.078718  1.000000  0.000000
  0.004986  0.000000  1.000000
************************************************************************
/Pt.Raf-r.Wahlgren.22s18p14d9f.8s7p5d3f.
U. Wahlgren
Knut Faegri, University of Oslo.
************************************************************************
*Pt.Raf-r.Wahlgren.22s18p14d9f.8s7p5d3f.
*Relativistic basis set
************************************************************************
      78.00000000
   22
 39153030. 5863120.1 1334304.4 377931.06 123287.67 44501.414 17351.815 7193.0960
 3133.7724 1421.4306 662.32698 296.70361 151.63278 76.626012 34.490110 18.114040
 7.8061920 3.9560990 1.6082575 0.7120100 0.1289162 0.0486346
  0.001298  0.000501 -0.000240 -0.000119  0.000051 -0.000014  0.000000  0.000000
  0.003071  0.001189 -0.000569 -0.000283  0.000121 -0.000034  0.000000  0.000000
  0.007006  0.002724 -0.001303 -0.000649  0.000277 -0.000077  0.000000  0.000000
  0.014280  0.005599 -0.002685 -0.001337  0.000571 -0.000158  0.000000  0.000000
  0.028252  0.011215 -0.005382 -0.002683  0.001146 -0.000317  0.000000  0.000000
  0.053722  0.021846 -0.010551 -0.005261  0.002248 -0.000623  0.000000  0.000000
  0.099736  0.041926 -0.020277 -0.010139  0.004330 -0.001200  0.000000  0.000000
  0.175086  0.078787 -0.038836 -0.019425  0.008312 -0.002304  0.000000  0.000000
  0.272269  0.134907 -0.066842 -0.033728  0.014417 -0.004000  0.000000  0.000000
  0.318161  0.190007 -0.099767 -0.050374  0.021657 -0.005997  0.000000  0.000000
  0.208089  0.105551 -0.048897 -0.025225  0.010666 -0.002983  0.000000  0.000000
  0.041197 -0.270890  0.200167  0.114608 -0.050009  0.014012  0.000000  0.000000
 -0.003005 -0.555652  0.586376  0.345995 -0.155343  0.043143  0.000000  0.000000
  0.001636 -0.314740  0.243781  0.165164 -0.073807  0.021125  0.000000  0.000000
 -0.000903 -0.021732 -0.829979 -0.932621  0.479065 -0.138073  0.000000  0.000000
  0.000518 -0.000810 -0.493596 -0.548294  0.300569 -0.084794  0.000000  0.000000
 -0.000259  0.001293 -0.061187  0.951953 -0.805059  0.245284  0.000000  0.000000
  0.000147 -0.000727  0.014080  0.562624 -0.656522  0.231964  0.000000  0.000000
 -0.000057  0.000304 -0.005147  0.026932  0.843360 -0.400998  0.000000  0.000000
  0.000020 -0.000115  0.001874 -0.000883  0.652627 -0.360237  1.000000  0.000000
 -0.000004  0.000025 -0.000394  0.000250  0.025704  0.644964  0.000000  0.000000
  0.000002 -0.000011  0.000170 -0.000118 -0.007715  0.534816  0.000000  1.000000
   18
 99621.508 23589.618 7660.1990 2929.3538 1242.9653 567.16252 272.37537 135.62884
 68.396200 35.454379 18.471661 9.1288840 4.5228550 1.9479390 0.8922360 0.3618590
 0.0920830 0.0347390
  0.001710 -0.000883  0.000437  0.000171  0.000000  0.000000  0.000000
  0.004753 -0.002472  0.001225  0.000481  0.000000  0.000000  0.000000
  0.015032 -0.007893  0.003924  0.001540  0.000000  0.000000  0.000000
  0.042541 -0.022730  0.011332  0.004462  0.000000  0.000000  0.000000
  0.111882 -0.061587  0.030989  0.012183  0.000000  0.000000  0.000000
  0.238507 -0.137405  0.069727  0.027602  0.000000  0.000000  0.000000
  0.363971 -0.220201  0.113805  0.044864  0.000000  0.000000  0.000000
  0.310842 -0.140670  0.062686  0.024532  0.000000  0.000000  0.000000
  0.106093  0.256462 -0.199406 -0.087476  0.000000  0.000000  0.000000
  0.005595  0.566040 -0.475559 -0.205937  0.000000  0.000000  0.000000
  0.001346  0.293159 -0.055823 -0.004961  0.000000  0.000000  0.000000
 -0.000791  0.034997  0.642893  0.409020  0.000000  0.000000  0.000000
  0.000323  0.000036  0.487818  0.299310  0.000000  0.000000  0.000000
 -0.000155  0.000315  0.058010 -0.464737  0.000000  0.000000  0.000000
  0.000078 -0.000177 -0.003300 -0.614588  0.000000  0.000000  0.000000
 -0.000025  0.000038  0.001218 -0.167055  1.000000  0.000000  0.000000
  0.000008 -0.000014 -0.000301 -0.002262  0.000000  1.000000  0.000000
 -0.000003  0.000006  0.000118 -0.000601  0.000000  0.000000  1.000000
   14
 3675.6514 1111.5436 433.50951 191.31286 90.787043 44.831568 22.593158 11.189035
 5.4251740 2.5199600 1.1061150 0.4411150 0.1554860 0.0548000
  0.001637 -0.000842 -0.000240  0.000000  0.000000
  0.010500 -0.005450 -0.001560  0.000000  0.000000
  0.047802 -0.025049 -0.007174  0.000000  0.000000
  0.152014 -0.081500 -0.023452  0.000000  0.000000
  0.321841 -0.172184 -0.049484  0.000000  0.000000
  0.404591 -0.193175 -0.054208  0.000000  0.000000
  0.233978  0.067674  0.032920  0.000000  0.000000
  0.045466  0.454275  0.160395  0.000000  0.000000
  0.001691  0.464980  0.152586  0.000000  0.000000
  0.000391  0.143532 -0.136187  0.000000  0.000000
 -0.000085  0.007047 -0.439962  0.000000  0.000000
  0.000021  0.001496 -0.450615  0.000000  0.000000
 -0.000017 -0.000140 -0.215329  1.000000  0.000000
  0.000004  0.000133 -0.017699  0.000000  1.000000
    9
 395.41515 137.34360 58.414058 26.992158 12.924197 6.1422920 2.8134350 1.1449430
 0.4660000
  0.002534  0.000000  0.000000
  0.019550  0.000000  0.000000
  0.080367  0.000000  0.000000
  0.209506  0.000000  0.000000
  0.343563  0.000000  0.000000
  0.369529  0.000000  0.000000
  0.245888  0.000000  0.000000
  0.074024  1.000000  0.000000
  0.003832  0.000000  1.000000
************************************************************************
/Au.Raf-r.Wahlgren.22s18p14d9f.8s7p5d3f.
U. Wahlgren
Knut Faegri, University of Oslo.
************************************************************************
*Au.Raf-r.Wahlgren.22s18p14d9f.8s7p5d3f.
*Relativistic basis set
************************************************************************
      79.00000000
   22
 40301880. 6035075.0 1373422.8 389008.13 126902.41 45807.732 17861.882 7404.7445
 3226.0354 1463.3062 681.91890 305.92614 156.34176 79.016270 35.584544 18.706384
 8.0727220 4.1177380 1.6971040 0.7474740 0.1283310 0.0430390
  0.001350  0.000524  0.000251 -0.000125  0.000054  0.000015  0.000000  0.000000
  0.003179  0.001237  0.000593 -0.000296  0.000128  0.000035  0.000000  0.000000
  0.007224  0.002822  0.001353 -0.000676  0.000292  0.000079  0.000000  0.000000
  0.014661  0.005776  0.002775 -0.001387  0.000598  0.000163  0.000000  0.000000
  0.028875  0.011519  0.005538 -0.002770  0.001195  0.000326  0.000000  0.000000
  0.054622  0.022322  0.010800 -0.005403  0.002332  0.000636  0.000000  0.000000
  0.100838  0.042604  0.020642 -0.010356  0.004468  0.001218  0.000000  0.000000
  0.175967  0.079568  0.039294 -0.019721  0.008525  0.002325  0.000000  0.000000
  0.272167  0.135406  0.067201 -0.034020  0.014690  0.004006  0.000000  0.000000
  0.316859  0.189393  0.099606 -0.050461  0.021918  0.005976  0.000000  0.000000
  0.207048  0.103173  0.047324 -0.024446  0.010426  0.002856  0.000000  0.000000
  0.041133 -0.272735 -0.202305  0.116279 -0.051269 -0.014097  0.000000  0.000000
 -0.002916 -0.554550 -0.587192  0.348067 -0.158005 -0.043253  0.000000  0.000000
  0.001600 -0.313260 -0.238951  0.161921 -0.072964 -0.020412  0.000000  0.000000
 -0.000885 -0.021322  0.833133 -0.943035  0.490499  0.138849  0.000000  0.000000
  0.000508 -0.000924  0.488953 -0.539929  0.299828  0.083861  0.000000  0.000000
 -0.000256  0.001368  0.061521  0.958793 -0.827756 -0.250428  0.000000  0.000000
  0.000146 -0.000779 -0.014685  0.555724 -0.657429 -0.226951  0.000000  0.000000
 -0.000056  0.000320  0.005289  0.027450  0.862985  0.403495  0.000000  0.000000
  0.000019 -0.000116 -0.001848 -0.000918  0.647014  0.346093  1.000000  0.000000
 -0.000004  0.000022  0.000344  0.000256  0.023026 -0.704960  0.000000  0.000000
  0.000001 -0.000009 -0.000139 -0.000099 -0.005803 -0.477555  0.000000  1.000000
   18
 103332.89 24467.867 7945.3705 3038.4991 1289.3683 588.42323 282.66282 140.82571
 71.129359 36.900314 19.248304 9.5232960 4.7393260 2.0586260 0.9452740 0.3844240
 0.0916650 0.0344310
  0.001750 -0.000905 -0.000450 -0.000179  0.000000  0.000000  0.000000
  0.004820 -0.002513 -0.001251 -0.000498  0.000000  0.000000  0.000000
  0.015134 -0.007967 -0.003978 -0.001582  0.000000  0.000000  0.000000
  0.042522 -0.022779 -0.011406 -0.004551  0.000000  0.000000  0.000000
  0.111362 -0.061442 -0.031050 -0.012372  0.000000  0.000000  0.000000
  0.237052 -0.136845 -0.069738 -0.027979  0.000000  0.000000  0.000000
  0.362688 -0.219720 -0.114034 -0.045562  0.000000  0.000000  0.000000
  0.312026 -0.142823 -0.064210 -0.025476  0.000000  0.000000  0.000000
  0.108156  0.251078  0.196734  0.087625  0.000000  0.000000  0.000000
  0.006047  0.565428  0.477352  0.209789  0.000000  0.000000  0.000000
  0.001329  0.297799  0.063650  0.008738  0.000000  0.000000  0.000000
 -0.000789  0.036405 -0.641293 -0.416071  0.000000  0.000000  0.000000
  0.000325 -0.000076 -0.491798 -0.307861  0.000000  0.000000  0.000000
 -0.000155  0.000348 -0.059236  0.471012  0.000000  0.000000  0.000000
  0.000078 -0.000198  0.003126  0.615068  0.000000  0.000000  0.000000
 -0.000024  0.000041 -0.001179  0.165536  1.000000  0.000000  0.000000
  0.000007 -0.000015  0.000268  0.002422  0.000000  1.000000  0.000000
 -0.000003  0.000006 -0.000108  0.000347  0.000000  0.000000  1.000000
   14
 3796.9157 1148.2908 447.89680 197.71898 93.870827 46.389021 23.399197 11.605727
 5.6455330 2.6274590 1.1676320 0.4710150 0.1681060 0.0600000
  0.001650 -0.000855  0.000252  0.000000  0.000000
  0.010508 -0.005496  0.001620  0.000000  0.000000
  0.047710 -0.025192  0.007436  0.000000  0.000000
  0.151643 -0.081918  0.024279  0.000000  0.000000
  0.321357 -0.173267  0.051341  0.000000  0.000000
  0.404502 -0.194557  0.056122  0.000000  0.000000
  0.234467  0.067905 -0.034256  0.000000  0.000000
  0.045765  0.456265 -0.167453  0.000000  0.000000
  0.001672  0.465038 -0.156426  0.000000  0.000000
  0.000390  0.140529  0.147399  0.000000  0.000000
 -0.000083  0.005960  0.447268  0.000000  0.000000
  0.000033  0.001209  0.442909  0.000000  0.000000
 -0.000013 -0.000390  0.203714  1.000000  0.000000
  0.000004  0.000131  0.016003  0.000000  1.000000
    9
 417.51079 145.14952 61.838917 28.638316 13.759916 6.5726160 3.0313660 1.2422510
 0.5091000
  0.002458  0.000000  0.000000
  0.019022  0.000000  0.000000
  0.078818  0.000000  0.000000
  0.207281  0.000000  0.000000
  0.343278  0.000000  0.000000
  0.371274  0.000000  0.000000
  0.245099  0.000000  0.000000
  0.071754  1.000000  0.000000
  0.003505  0.000000  1.000000
************************************************************************
/Hg.Raf-r.Wahlgren.22s18p14d9f.8s7p5d3f.
U. Wahlgren
Knut Faegri, University of Oslo.
************************************************************************
*Hg.Raf-r.Wahlgren.22s18p14d9f.8s7p5d3f.
*Relativistic basis set
************************************************************************
      80.00000000
   22
 41661580. 6238626.0 1419739.9 402126.75 131182.27 47352.808 18464.395 7654.4997
 3334.8159 1512.6363 705.03666 317.36305 162.05091 81.835091 36.854951 19.410908
 8.4120990 4.3224580 1.8291180 0.8275330 0.1613400 0.0591120
  0.001400 -0.000546  0.000262 -0.000131  0.000057  0.000017  0.000000  0.000000
  0.003281 -0.001283  0.000616 -0.000309  0.000135  0.000039  0.000000  0.000000
  0.007428 -0.002915  0.001400 -0.000702  0.000307  0.000089  0.000000  0.000000
  0.015006 -0.005941  0.002858 -0.001433  0.000627  0.000182  0.000000  0.000000
  0.029422 -0.011794  0.005680 -0.002850  0.001247  0.000361  0.000000  0.000000
  0.055362 -0.022733  0.011018 -0.005531  0.002421  0.000701  0.000000  0.000000
  0.101634 -0.043153  0.020945 -0.010542  0.004612  0.001337  0.000000  0.000000
  0.176341 -0.080081  0.039614 -0.019951  0.008747  0.002534  0.000000  0.000000
  0.271510 -0.135563  0.067388 -0.034222  0.014986  0.004346  0.000000  0.000000
  0.315608 -0.188500  0.099248 -0.050462  0.022233  0.006438  0.000000  0.000000
  0.206972 -0.102296  0.046682 -0.024115  0.010414  0.003044  0.000000  0.000000
  0.041680  0.270493 -0.201124  0.115917 -0.051831 -0.015182  0.000000  0.000000
 -0.002750  0.554224 -0.586850  0.349529 -0.161059 -0.046811  0.000000  0.000000
  0.001550  0.314850 -0.240770  0.162619 -0.074217 -0.022202  0.000000  0.000000
 -0.000865  0.021598  0.831922 -0.945165  0.499504  0.150847  0.000000  0.000000
  0.000503  0.000936  0.489101 -0.544247  0.307885  0.091256  0.000000  0.000000
 -0.000260 -0.001428  0.063723  0.955366 -0.842835 -0.271557  0.000000  0.000000
  0.000154  0.000847 -0.016066  0.560615 -0.677831 -0.253593  0.000000  0.000000
 -0.000062 -0.000366  0.006085  0.029655  0.844533  0.431493  0.000000  0.000000
  0.000021  0.000137 -0.002195 -0.000943  0.678296  0.386009  1.000000  0.000000
 -0.000004 -0.000029  0.000449  0.000304  0.028451 -0.628153  0.000000  0.000000
  0.000002  0.000012 -0.000182 -0.000111 -0.007511 -0.567227  0.000000  1.000000
   18
 107631.33 25485.514 8275.9298 3165.0688 1343.2024 613.10426 294.61755 146.88179
 74.346672 38.593904 20.160623 9.9884060 4.9935970 2.1949000 1.0175430 0.4195370
 0.1152430 0.0422230
  0.001783 -0.000925  0.000462 -0.000187  0.000000  0.000000  0.000000
  0.004864 -0.002542  0.001271 -0.000515  0.000000  0.000000  0.000000
  0.015158 -0.007999  0.004011 -0.001624  0.000000  0.000000  0.000000
  0.042269 -0.022699  0.011414 -0.004636  0.000000  0.000000  0.000000
  0.110261 -0.060957  0.030934 -0.012550  0.000000  0.000000  0.000000
  0.234605 -0.135665  0.069419 -0.028349  0.000000  0.000000  0.000000
  0.360770 -0.218796  0.114019 -0.046396  0.000000  0.000000  0.000000
  0.314135 -0.146535  0.066733 -0.026946  0.000000  0.000000  0.000000
  0.111557  0.241781 -0.191101  0.086749  0.000000  0.000000  0.000000
  0.006812  0.564445 -0.478580  0.214664  0.000000  0.000000  0.000000
  0.001299  0.305697 -0.077866  0.015643  0.000000  0.000000  0.000000
 -0.000782  0.038842  0.636015 -0.421841  0.000000  0.000000  0.000000
  0.000328 -0.000233  0.500211 -0.323992  0.000000  0.000000  0.000000
 -0.000160  0.000420  0.062634  0.470682  0.000000  0.000000  0.000000
  0.000082 -0.000241 -0.003197  0.621656  0.000000  0.000000  0.000000
 -0.000027  0.000058  0.001229  0.164623  1.000000  0.000000  0.000000
  0.000009 -0.000020 -0.000324  0.002552  0.000000  1.000000  0.000000
 -0.000003  0.000007  0.000115  0.000654  0.000000  0.000000  1.000000
   14
 4110.4803 1243.3755 485.27684 214.51461 102.09188 50.610564 25.680837 12.839433
 6.3109090 3.0093950 1.3607420 0.5652400 0.2094170 0.0776000
  0.001529 -0.000798  0.000248  0.000000  0.000000
  0.009635 -0.005074  0.001583  0.000000  0.000000
  0.043851 -0.023291  0.007269  0.000000  0.000000
  0.141073 -0.076679  0.024068  0.000000  0.000000
  0.306782 -0.166781  0.052254  0.000000  0.000000
  0.403789 -0.200595  0.061790  0.000000  0.000000
  0.253500  0.033797 -0.024571  0.000000  0.000000
  0.056474  0.428853 -0.167330  0.000000  0.000000
  0.002292  0.482741 -0.180040  0.000000  0.000000
  0.000548  0.167179  0.116604  0.000000  0.000000
 -0.000139  0.010944  0.448378  0.000000  0.000000
  0.000058  0.000912  0.456018  0.000000  0.000000
 -0.000023 -0.000263  0.200235  1.000000  0.000000
  0.000007  0.000091  0.014535  0.000000  1.000000
    9
 442.83436 154.10907 65.780224 30.539806 14.732483 7.0777280 3.2915460 1.3677440
 0.3925980
  0.002353  0.000000  0.000000
  0.018290  0.000000  0.000000
  0.076489  0.000000  0.000000
  0.203456  0.000000  0.000000
  0.341353  0.000000  0.000000
  0.373235  0.000000  0.000000
  0.246316  0.000000  0.000000
  0.072060  1.000000  0.000000
  0.003179  0.000000  1.000000
************************************************************************
/Tl.Raf-r.Wahlgren.22s17p14d9f.8s7p5d3f.
U. Wahlgren
Knut Faegri, University of Oslo.
************************************************************************
*Tl.Raf-r.Wahlgren.22s17p14d9f.8s7p5d3f.
*Relativistic basis set
************************************************************************
      81.00000000
   22
 45293490. 6765245.0 1535390.1 433633.05 141021.42 50735.079 19710.470 8137.9889
 3530.7569 1595.1721 741.14765 334.96393 170.23293 85.571732 38.333722 20.237259
 8.7848631 4.5464254 1.9659900 0.9134530 0.2015440 0.0766340
  0.001406 -0.000551  0.000265  0.000133  0.000059  0.000019  0.000000  0.000000
  0.003289 -0.001292  0.000621  0.000312  0.000138  0.000044  0.000000  0.000000
  0.007426 -0.002928  0.001408  0.000708  0.000314  0.000099  0.000000  0.000000
  0.014964 -0.005951  0.002868  0.001443  0.000639  0.000202  0.000000  0.000000
  0.029259 -0.011780  0.005682  0.002861  0.001267  0.000401  0.000000  0.000000
  0.054895 -0.022625  0.010982  0.005531  0.002452  0.000775  0.000000  0.000000
  0.100538 -0.042836  0.020822  0.010513  0.004658  0.001473  0.000000  0.000000
  0.174310 -0.079272  0.039258  0.019838  0.008809  0.002786  0.000000  0.000000
  0.269170 -0.134427  0.066886  0.034062  0.015105  0.004777  0.000000  0.000000
  0.316099 -0.187592  0.098754  0.050382  0.022483  0.007112  0.000000  0.000000
  0.211554 -0.107071  0.049380  0.025530  0.011172  0.003539  0.000000  0.000000
  0.044387  0.257798 -0.191150 -0.110383 -0.049963 -0.015909  0.000000  0.000000
 -0.002472  0.556884 -0.585775 -0.350045 -0.163398 -0.052010  0.000000  0.000000
  0.001504  0.323813 -0.255379 -0.171772 -0.079473 -0.025599  0.000000  0.000000
 -0.000853  0.023292  0.826679  0.940290  0.503887  0.165571  0.000000  0.000000
  0.000505  0.000572  0.494504  0.557946  0.321192  0.105711  0.000000  0.000000
 -0.000269 -0.001324  0.067570 -0.947727 -0.852706 -0.304905  0.000000  0.000000
  0.000165  0.000826 -0.018097 -0.570003 -0.700405 -0.282956  0.000000  0.000000
 -0.000069 -0.000379  0.007197 -0.032096  0.820921  0.456595  0.000000  0.000000
  0.000025  0.000149 -0.002695  0.000932  0.711170  0.465271  1.000000  0.000000
 -0.000006 -0.000033  0.000586 -0.000321  0.034463 -0.645471  0.000000  0.000000
  0.000002  0.000013 -0.000229  0.000115 -0.008457 -0.585633  0.000000  1.000000
   17
 84981.167 20126.806 6534.6883 2497.4534 1058.8054 482.26909 231.20100 114.70552
 56.397465 28.886200 14.275089 7.1339827 3.4962109 1.5789587 0.6649138 0.1542499
 0.0480480
  0.002349 -0.001222 -0.000613 -0.000253 -0.000055  0.000000  0.000000
  0.006644 -0.003486 -0.001752 -0.000723 -0.000156  0.000000  0.000000
  0.021097 -0.011212 -0.005646 -0.002328 -0.000504  0.000000  0.000000
  0.059361 -0.032153 -0.016288 -0.006744 -0.001454  0.000000  0.000000
  0.150404 -0.084619 -0.043180 -0.017838 -0.003869  0.000000  0.000000
  0.294992 -0.173781 -0.090044 -0.037546 -0.008079  0.000000  0.000000
  0.379692 -0.229892 -0.119066 -0.049078 -0.010738  0.000000  0.000000
  0.240410 -0.016754  0.015103  0.007807  0.002073  0.000000  0.000000
  0.048961  0.465629  0.377237  0.175639  0.037765  0.000000  0.000000
 -0.000970  0.508505  0.397573  0.173419  0.039513  0.000000  0.000000
  0.001014  0.130167 -0.353185 -0.225363 -0.055270  0.000000  0.000000
 -0.000658  0.000891 -0.692404 -0.517380 -0.114498  0.000000  0.000000
  0.000291  0.002079 -0.205865  0.076621  0.016337  0.000000  0.000000
 -0.000114 -0.000797 -0.007565  0.733367  0.243908  0.000000  0.000000
  0.000039  0.000204 -0.000567  0.375198  0.063471  1.000000  0.000000
 -0.000009 -0.000052  0.000080  0.018102 -0.511328  0.000000  0.000000
  0.000003  0.000019 -0.000020 -0.002795 -0.609967  0.000000  1.000000
   14
 4434.3566 1341.6098 523.88515 231.87170 110.38649 54.877666 28.035186 14.120612
 7.0039020 3.4021455 1.5588069 0.6634230 0.2537882 0.0970000
  0.001425 -0.000748  0.000245  0.000000  0.000000
  0.008897 -0.004717  0.001553  0.000000  0.000000
  0.040476 -0.021626  0.007114  0.000000  0.000000
  0.131936 -0.072142  0.023896  0.000000  0.000000
  0.294164 -0.161172  0.053231  0.000000  0.000000
  0.400743 -0.204184  0.066756  0.000000  0.000000
  0.269941  0.003984 -0.015014  0.000000  0.000000
  0.067869  0.400792 -0.166021  0.000000  0.000000
  0.003111  0.495974 -0.201245  0.000000  0.000000
  0.000740  0.193408  0.087462  0.000000  0.000000
 -0.000213  0.016743  0.449675  0.000000  0.000000
  0.000093  0.000584  0.471981  0.000000  0.000000
 -0.000037 -0.000129  0.191645  1.000000  0.000000
  0.000012  0.000042  0.011276  0.000000  1.000000
    9
 468.83442 163.31463 69.829556 32.496792 15.735602 7.6001041 3.5618861 1.4998462
 0.6320000
  0.002259  0.000000  0.000000
  0.017610  0.000000  0.000000
  0.074326  0.000000  0.000000
  0.199703  0.000000  0.000000
  0.339499  0.000000  0.000000
  0.374715  0.000000  0.000000
  0.248346  0.000000  0.000000
  0.070898  1.000000  0.000000
  0.002935  0.000000  1.000000
************************************************************************
/Po.Raf-r.Wahlgren.22s17p14d9f.8s7p5d3f.
U. Wahlgren
Knut Faegri, University of Oslo.
************************************************************************
*Po.Raf-r.Wahlgren.22s17p14d9f.8s7p5d3f.
*Relativistic basis set
************************************************************************
      84.00000000
   22
 49123459. 7344710.4 1669711.3 472180.52 153700.82 55237.840 21504.114 8883.9142
 3857.4141 1744.3483 811.53026 369.39451 187.45582 94.145321 42.317993 22.456286
 9.8713757 5.2075960 2.3818980 1.1796970 0.2881210 0.1150090
 -0.001590 -0.000632 -0.000305 -0.000155  0.000071  0.000026  0.000000  0.000000
 -0.003657 -0.001457 -0.000704 -0.000357  0.000164  0.000060  0.000000  0.000000
 -0.008150 -0.003262 -0.001576 -0.000800  0.000368  0.000134  0.000000  0.000000
 -0.016175 -0.006529 -0.003161 -0.001606  0.000738  0.000269  0.000000  0.000000
 -0.031256 -0.012776 -0.006193 -0.003147  0.001446  0.000527  0.000000  0.000000
 -0.057701 -0.024145 -0.011775 -0.005988  0.002753  0.001003  0.000000  0.000000
 -0.103591 -0.044824 -0.021899 -0.011160  0.005128  0.001868  0.000000  0.000000
 -0.176710 -0.081509 -0.040560 -0.020700  0.009535  0.003474  0.000000  0.000000
 -0.268018 -0.135442 -0.067707 -0.034792  0.015995  0.005832  0.000000  0.000000
 -0.311805 -0.185038 -0.097720 -0.050362  0.023327  0.008497  0.000000  0.000000
 -0.209055 -0.101318 -0.045593 -0.023541  0.010599  0.003888  0.000000  0.000000
 -0.045186  0.258136  0.193509  0.112682 -0.052843 -0.019463  0.000000  0.000000
  0.002171  0.554389  0.585278  0.354696 -0.172322 -0.063156  0.000000  0.000000
 -0.001454  0.323054  0.251046  0.167563 -0.079672 -0.029887  0.000000  0.000000
  0.000853  0.023046 -0.826178 -0.951759  0.531241  0.202924  0.000000  0.000000
 -0.000524  0.000871 -0.490249 -0.561809  0.341020  0.129036  0.000000  0.000000
  0.000298 -0.001616 -0.073254  0.942433 -0.903936 -0.376234  0.000000  0.000000
 -0.000196  0.001096  0.022235  0.578608 -0.741533 -0.361563  0.000000  0.000000
  0.000090 -0.000546 -0.009701  0.038141  0.773796  0.533858  0.000000  0.000000
 -0.000034  0.000219  0.003739 -0.000904  0.790722  0.604120  1.000000  0.000000
  0.000007 -0.000047 -0.000790  0.000303  0.044957 -0.782576  0.000000  0.000000
 -0.000003  0.000018  0.000296 -0.000125 -0.010782 -0.516301  0.000000  1.000000
   17
 96720.948 22906.018 7437.4308 2843.0979 1205.7962 549.63092 263.73776 131.02118
 64.706791 33.371119 16.812936 8.4927089 4.2682154 1.9618574 0.8808097 0.2494018
 0.0846418
  0.002453 -0.001286  0.000652 -0.000283  0.000084  0.000000  0.000000
  0.006728 -0.003556  0.001808 -0.000786  0.000232  0.000000  0.000000
  0.020866 -0.011166  0.005693 -0.002471  0.000731  0.000000  0.000000
  0.057432 -0.031316  0.016052 -0.006996  0.002064  0.000000  0.000000
  0.144279 -0.081569  0.042146 -0.018327  0.005437  0.000000  0.000000
  0.284684 -0.168292  0.088130 -0.038691  0.011390  0.000000  0.000000
  0.377529 -0.230129  0.120998 -0.052528  0.015712  0.000000  0.000000
  0.254001 -0.040837 -0.000469  0.001608 -0.001026  0.000000  0.000000
  0.057673  0.433942 -0.354912  0.174840 -0.051564  0.000000  0.000000
 -0.000838  0.524822 -0.430438  0.200656 -0.062582  0.000000  0.000000
  0.001311  0.154146  0.283264 -0.195800  0.067624  0.000000  0.000000
 -0.000849  0.003996  0.708206 -0.564904  0.174457  0.000000  0.000000
  0.000396  0.001944  0.248207  0.014275 -0.002153  0.000000  0.000000
 -0.000164 -0.000797  0.013501  0.744733 -0.361722  0.000000  0.000000
  0.000062  0.000221  0.000058  0.399165 -0.100012  1.000000  0.000000
 -0.000016 -0.000062  0.000007  0.022119  0.633342  0.000000  0.000000
  0.000005  0.000022 -0.000023 -0.002422  0.507902  0.000000  1.000000
   14
 5264.5865 1593.4447 622.76584 276.26481 132.23345 66.086100 33.980872 17.359042
 8.7603531 4.3783109 2.0685550 0.9286558 0.3741944 0.1250000
  0.001275 -0.000683  0.000252  0.000000  0.000000
  0.007729 -0.004177  0.001550  0.000000  0.000000
  0.035108 -0.019110  0.007076  0.000000  0.000000
  0.115947 -0.064522  0.024085  0.000000  0.000000
  0.268467 -0.150298  0.055911  0.000000  0.000000
  0.393530 -0.209600  0.077728  0.000000  0.000000
  0.299256 -0.045900  0.003580  0.000000  0.000000
  0.090439  0.348079 -0.166426  0.000000  0.000000
  0.006146  0.511813 -0.243466  0.000000  0.000000
  0.000808  0.240200  0.038741  0.000000  0.000000
 -0.000223  0.028870  0.460918  0.000000  0.000000
  0.000101  0.000076  0.493424  0.000000  0.000000
 -0.000036  0.000056  0.169550  1.000000  0.000000
  0.000010 -0.000034  0.006865  0.000000  1.000000
    9
 549.92141 192.06420 82.474529 38.619589 18.880313 9.2459951 4.4208631 1.9271061
 0.6420000
  0.002031  0.000000  0.000000
  0.015930  0.000000  0.000000
  0.068806  0.000000  0.000000
  0.189939  0.000000  0.000000
  0.333963  0.000000  0.000000
  0.378849  0.000000  0.000000
  0.252991  0.000000  0.000000
  0.070986  1.000000  0.000000
  0.002293  0.000000  1.000000
************************************************************************
/Th.Raf-r.Wahlgren.24s19p14d11f.9s8p7d5f.
U. Wahlgren
Knut Faegri, University of Oslo.
************************************************************************
*Th.Raf-r.Wahlgren.24s19p14d11f.9s8p7d5f.
*Relativistic basis set
************************************************************************
      90.00000000
   24
 56858770. 8514809.0 1937898.6 548918.60 179072.48 64639.346 25204.193 10448.155
 4552.0230 2065.3949 965.28516 447.97819 225.38119 112.95680 51.109702 27.418441
 12.362758 6.7432300 3.0964087 1.6682377 0.5705845 0.2768392 0.0672058 0.0288813
  0.002060  0.000845  0.000411 -0.000212  0.000104 -0.000045  0.000014  0.000000  0.000000
  0.004582  0.001884  0.000918 -0.000474  0.000231 -0.000101  0.000031  0.000000  0.000000
  0.009945  0.004107  0.002002 -0.001034  0.000504 -0.000221  0.000068  0.000000  0.000000
  0.019157  0.007979  0.003897 -0.002014  0.000983 -0.000430  0.000131  0.000000  0.000000
  0.035873  0.015138  0.007403 -0.003828  0.001868 -0.000818  0.000250  0.000000  0.000000
  0.063996  0.027636  0.013596 -0.007036  0.003435 -0.001505  0.000460  0.000000  0.000000
  0.111088  0.049641  0.024481 -0.012693  0.006193 -0.002713  0.000829  0.000000  0.000000
  0.181699  0.086266  0.043299 -0.022499  0.011006 -0.004824  0.001473  0.000000  0.000000
  0.266120  0.137797  0.069470 -0.036294  0.017717 -0.007766  0.002374  0.000000  0.000000
  0.301648  0.178237  0.094509 -0.049586  0.024403 -0.010702  0.003268  0.000000  0.000000
  0.202433  0.088625  0.037148 -0.018957  0.008920 -0.003901  0.001195  0.000000  0.000000
  0.046040 -0.260548 -0.199461  0.117999 -0.058872  0.026007 -0.007965  0.000000  0.000000
 -0.000901 -0.551658 -0.585907  0.364286 -0.188767  0.083691 -0.025602  0.000000  0.000000
  0.000990 -0.317136 -0.234734  0.153193 -0.076329  0.033979 -0.010439  0.000000  0.000000
 -0.000601 -0.023073  0.825071 -0.974831  0.584976 -0.270085  0.083312  0.000000  0.000000
  0.000376 -0.000782  0.478596 -0.561885  0.370350 -0.173957  0.053636  0.000000  0.000000
 -0.000229  0.001708  0.083887  0.926298 -0.993198  0.522465 -0.164275  0.000000  0.000000
  0.000160 -0.001248 -0.029317  0.602450 -0.806538  0.480019 -0.155326  0.000000  0.000000
 -0.000086  0.000724  0.014915  0.049802  0.868067 -0.777135  0.268012  0.000000  0.000000
  0.000042 -0.000382 -0.007555 -0.004717  0.748719 -0.781486  0.285222  0.000000  0.000000
 -0.000014  0.000131  0.002550  0.001276  0.060330  0.837774 -0.422469  0.000000  0.000000
  0.000007 -0.000063 -0.001224 -0.000633 -0.015307  0.617546 -0.451415  1.000000  0.000000
 -0.000002  0.000017  0.000336  0.000154  0.003547  0.028038  0.541901  0.000000  0.000000
  0.000001 -0.000007 -0.000139 -0.000064 -0.001434 -0.007039  0.689503  0.000000  1.000000
   19
 117810.65 27899.292 9059.1080 3463.7029 1469.5522 670.40272 322.07651 160.32475
 79.731427 41.468978 21.278593 10.886530 5.6000898 2.6872124 1.3038760 0.4698499
 0.1845562 0.0448039 0.0192542
  0.002817 -0.001496 -0.000776  0.000365  0.000145  0.000000  0.000000  0.000000
  0.007346 -0.003937 -0.002048  0.000964  0.000382  0.000000  0.000000  0.000000
  0.021878 -0.011871 -0.006193  0.002913  0.001155  0.000000  0.000000  0.000000
  0.057771 -0.031944 -0.016747  0.007908  0.003128  0.000000  0.000000  0.000000
  0.141602 -0.081021 -0.042836  0.020194  0.008025  0.000000  0.000000  0.000000
  0.276925 -0.165303 -0.088442  0.042066  0.016622  0.000000  0.000000  0.000000
  0.373298 -0.229015 -0.123192  0.058024  0.023210  0.000000  0.000000  0.000000
  0.262676 -0.055703 -0.008148  0.002097  0.000104  0.000000  0.000000  0.000000
  0.065343  0.408369  0.343387 -0.184717 -0.073786  0.000000  0.000000  0.000000
 -0.000505  0.532229  0.455638 -0.234041 -0.097650  0.000000  0.000000  0.000000
  0.001580  0.174870 -0.234799  0.187516  0.089129  0.000000  0.000000  0.000000
 -0.001055  0.007248 -0.721374  0.643345  0.278464  0.000000  0.000000  0.000000
  0.000545  0.001741 -0.273914  0.010937 -0.000082  0.000000  0.000000  0.000000
 -0.000258 -0.000860 -0.018260 -0.783948 -0.564864  0.000000  0.000000  0.000000
  0.000115  0.000283  0.000620 -0.386945 -0.115307  0.000000  0.000000  0.000000
 -0.000038 -0.000098 -0.000180 -0.023847  0.789001  0.000000  0.000000  0.000000
  0.000015  0.000040  0.000092  0.002974  0.381796  1.000000  0.000000  0.000000
 -0.000005 -0.000014 -0.000037 -0.000784  0.014370  0.000000  1.000000  0.000000
  0.000003  0.000007  0.000016  0.000374 -0.001570  0.000000  0.000000  1.000000
   14
 4009.2772 1212.4996 472.01871 207.70909 97.909428 48.106094 23.593476 11.559078
 5.6274306 2.6003519 1.1395922 0.3676768 0.1138418 0.0350000
  0.002926 -0.001631  0.000702 -0.000210  0.000000  0.000000  0.000000
  0.017632 -0.009881  0.004241 -0.001276  0.000000  0.000000  0.000000
  0.074859 -0.042782  0.018528 -0.005544  0.000000  0.000000  0.000000
  0.216750 -0.125675  0.054298 -0.016369  0.000000  0.000000  0.000000
  0.391905 -0.224014  0.097337 -0.029016  0.000000  0.000000  0.000000
  0.370081 -0.128255  0.042891 -0.012872  0.000000  0.000000  0.000000
  0.133376  0.305077 -0.178616  0.057324  0.000000  0.000000  0.000000
  0.009003  0.557855 -0.319221  0.096244  0.000000  0.000000  0.000000
  0.001364  0.259469  0.066433 -0.027325  0.000000  0.000000  0.000000
 -0.000525  0.023496  0.600664 -0.249470  0.000000  0.000000  0.000000
  0.000206 -0.000046  0.436949 -0.080489  1.000000  0.000000  0.000000
 -0.000063 -0.000110  0.049183  0.567286  0.000000  0.000000  0.000000
  0.000024  0.000012 -0.007553  0.567530  0.000000  1.000000  0.000000
 -0.000008 -0.000009  0.001873  0.043296  0.000000  0.000000  1.000000
   11
 632.11882 220.96126 94.948664 44.544445 21.781391 10.705613 5.1252572 2.1984775
 0.8764716 0.3048127 0.1000000
  0.002401 -0.000551  0.000000  0.000000  0.000000
  0.018519 -0.004320  0.000000  0.000000  0.000000
  0.078966 -0.018258  0.000000  0.000000  0.000000
  0.213743 -0.050003  0.000000  0.000000  0.000000
  0.360901 -0.078257  0.000000  0.000000  0.000000
  0.377946 -0.067387  0.000000  0.000000  0.000000
  0.206903  0.065948  0.000000  0.000000  0.000000
  0.035766  0.275249  0.000000  0.000000  0.000000
 -0.001205  0.415860  1.000000  0.000000  0.000000
  0.000619  0.427064  0.000000  1.000000  0.000000
 -0.000178  0.202993  0.000000  0.000000  1.000000
************************************************************************
/U.Raf-r.Wahlgren.24s19p14d11f.9s8p7d5f.
U. Wahlgren
Knut Faegri, University of Oslo.
************************************************************************
*U.Raf-r.Wahlgren.24s19p14d11f.9s8p7d5f.
*Relativistic basis set
************************************************************************
      92.00000000
   24
 20937546. 4399173.9 1188162.8 375430.04 132390.27 50702.255 20722.029 8928.2274
 4018.3294 1874.6662 896.00546 413.80968 214.61136 110.58599 52.140838 27.905519
 12.810718 7.0476135 2.9255957 1.5568598 0.6703872 0.3200485 0.0626801 0.0267551
 -0.004010  0.001663 -0.000812 -0.000421  0.000208  0.000092  0.000027  0.000000  0.000000
 -0.005970  0.002487 -0.001215 -0.000631  0.000312  0.000138  0.000041  0.000000  0.000000
 -0.014049  0.005879 -0.002874 -0.001492  0.000738  0.000326  0.000096  0.000000  0.000000
 -0.023937  0.010128 -0.004964 -0.002579  0.001276  0.000564  0.000166  0.000000  0.000000
 -0.044858  0.019244 -0.009445 -0.004910  0.002429  0.001073  0.000316  0.000000  0.000000
 -0.075203  0.033171 -0.016396 -0.008531  0.004227  0.001868  0.000550  0.000000  0.000000
 -0.127775  0.058373 -0.028920 -0.015082  0.007459  0.003296  0.000971  0.000000  0.000000
 -0.197490  0.096771 -0.048913 -0.025562  0.012704  0.005619  0.001655  0.000000  0.000000
 -0.274271  0.145838 -0.073937 -0.038890  0.019206  0.008485  0.002500  0.000000  0.000000
 -0.282262  0.171090 -0.091439 -0.048184  0.024203  0.010730  0.003160  0.000000  0.000000
 -0.168880  0.035520 -0.003127 -0.000267 -0.000724 -0.000403 -0.000119  0.000000  0.000000
 -0.030209 -0.339949  0.271885  0.163463 -0.082270 -0.036532 -0.010772  0.000000  0.000000
  0.000875 -0.516962  0.578074  0.365289 -0.195335 -0.087902 -0.025962  0.000000  0.000000
 -0.000336 -0.261414  0.123124  0.072742 -0.028614 -0.011833 -0.003438  0.000000  0.000000
  0.000084 -0.011119 -0.852059 -1.040641  0.629899  0.292499  0.086818  0.000000  0.000000
  0.000017 -0.004503 -0.432331 -0.463637  0.328660  0.160323  0.048070  0.000000  0.000000
 -0.000037  0.003664 -0.067588  0.976975 -1.139794 -0.623651 -0.190432  0.000000  0.000000
  0.000025 -0.002335  0.021416  0.549899 -0.635078 -0.363846 -0.112017  0.000000  0.000000
 -0.000014  0.001250 -0.010532  0.048769  1.131671  1.066494  0.356329  0.000000  0.000000
  0.000010 -0.000807  0.006789 -0.013380  0.451275  0.502328  0.182996  0.000000  0.000000
 -0.000004  0.000337 -0.002822  0.004779  0.041938 -0.795900 -0.377682  0.000000  0.000000
  0.000001 -0.000122  0.001023 -0.001724 -0.008105 -0.697416 -0.466208  1.000000  0.000000
  0.000000  0.000026 -0.000220  0.000352  0.001804 -0.032274  0.667636  0.000000  0.000000
  0.000000 -0.000012  0.000099 -0.000158 -0.000810  0.010356  0.541546  0.000000  1.000000
   19
 120600.79 28560.601 9273.7561 3545.6633 1504.2902 686.21916 329.71380 164.16782
 81.521022 42.330850 21.567051 11.090782 5.6590355 2.7909767 1.3585624 0.6777239
 0.2652057 0.0626801 0.0267551
  0.003058 -0.001631  0.000852 -0.000407  0.000162  0.000000  0.000000  0.000000
  0.007894 -0.004251  0.002226 -0.001066  0.000424  0.000000  0.000000  0.000000
  0.023286 -0.012700  0.006670 -0.003193  0.001269  0.000000  0.000000  0.000000
  0.060778 -0.033789  0.017843 -0.008566  0.003409  0.000000  0.000000  0.000000
  0.147170 -0.084713  0.045099 -0.021641  0.008600  0.000000  0.000000  0.000000
  0.283342 -0.170004  0.091662 -0.044308  0.017673  0.000000  0.000000  0.000000
  0.373258 -0.228669  0.123442 -0.059214  0.023478  0.000000  0.000000  0.000000
  0.253371 -0.037852 -0.004087  0.004557 -0.001871  0.000000  0.000000  0.000000
  0.059538  0.432199 -0.368890  0.201632 -0.082900  0.000000  0.000000  0.000000
 -0.000904  0.520599 -0.438667  0.229361 -0.091931  0.000000  0.000000  0.000000
  0.001530  0.157150  0.291585 -0.238257  0.103467  0.000000  0.000000  0.000000
 -0.001057  0.003727  0.720271 -0.659428  0.307104  0.000000  0.000000  0.000000
  0.000590  0.002267  0.235977  0.072761 -0.084056  0.000000  0.000000  0.000000
 -0.000321 -0.001263  0.011479  0.803641 -0.516175  0.000000  0.000000  0.000000
  0.000180  0.000578  0.000233  0.329162 -0.222763  0.000000  0.000000  0.000000
 -0.000078 -0.000254 -0.000011  0.021213  0.644404  0.000000  0.000000  0.000000
  0.000021  0.000069 -0.000033  0.001942  0.604814  1.000000  0.000000  0.000000
 -0.000007 -0.000021  0.000015 -0.000508  0.048540  0.000000  1.000000  0.000000
  0.000003  0.000010 -0.000006  0.000196 -0.009733  0.000000  0.000000  1.000000
   14
 4232.0298 1279.9937 498.41509 219.43488 103.52884 50.931625 25.031067 12.309789
 6.0167170 2.8100318 1.2365305 0.3943750 0.1209164 0.0400000
  0.002981 -0.001679 -0.000741 -0.000220  0.000000  0.000000  0.000000
  0.017733 -0.010045 -0.004422 -0.001321  0.000000  0.000000  0.000000
  0.074866 -0.043246 -0.019204 -0.005696  0.000000  0.000000  0.000000
  0.216360 -0.126780 -0.056199 -0.016837  0.000000  0.000000  0.000000
  0.391358 -0.226044 -0.100674 -0.029701  0.000000  0.000000  0.000000
  0.370034 -0.129146 -0.043996 -0.013264  0.000000  0.000000  0.000000
  0.133974  0.307281  0.186511  0.060084  0.000000  0.000000  0.000000
  0.009042  0.560054  0.330088  0.097804  0.000000  0.000000  0.000000
  0.001355  0.255042 -0.080849 -0.030757  0.000000  0.000000  0.000000
 -0.000548  0.021889 -0.613373 -0.260355  0.000000  0.000000  0.000000
  0.000202  0.000212 -0.419753 -0.053130  1.000000  0.000000  0.000000
 -0.000064 -0.000143 -0.044492  0.569363  0.000000  0.000000  0.000000
  0.000023  0.000034  0.006727  0.547169  0.000000  1.000000  0.000000
 -0.000009 -0.000017 -0.001889  0.064276  0.000000  0.000000  1.000000
   11
 634.16589 221.53708 95.048353 44.518096 21.679698 10.633304 5.0959938 2.2294102
 0.9128159 0.3288707 0.1000000
  0.002777 -0.000830  0.000000  0.000000  0.000000
  0.021157 -0.006373  0.000000  0.000000  0.000000
  0.088577 -0.026666  0.000000  0.000000  0.000000
  0.233368 -0.070320  0.000000  0.000000  0.000000
  0.377776 -0.105311  0.000000  0.000000  0.000000
  0.367624 -0.073389  0.000000  0.000000  0.000000
  0.174315  0.121651  0.000000  0.000000  0.000000
  0.023897  0.377949  0.000000  0.000000  0.000000
 -0.000498  0.455428  1.000000  0.000000  0.000000
  0.000302  0.303942  0.000000  1.000000  0.000000
 -0.000065  0.072336  0.000000  0.000000  1.000000
***********************************************************************
