************************************************************************
* This file is part of OpenMolcas.                                     *
*                                                                      *
* OpenMolcas is free software; you can redistribute it and/or modify   *
* it under the terms of the GNU Lesser General Public License, v. 2.1. *
* OpenMolcas is distributed in the hope that it will be useful, but it *
* is provided "as is" and without any express or implied warranties.   *
* For more details see the full text of the license in the file        *
* LICENSE or in <http://www.gnu.org/licenses/>.                        *
************************************************************************

#Hamiltonian RH_
#Nucleus UNK
#Contraction RAF
#AllElectron AE_

************************************************************************
*Relativistic basis set
************************************************************************

/O.Raf-r.Wahlgren.9s6p1d.3s4p1d.
U. Wahlgren, Huzinaga
OXYGEN (9s,6p,1d) -> [3s,4p,1d]
     8.0   2
    9    3
       7816.54000000
       1175.82000000
        273.18800000
         81.16960000
         27.18360000
          3.41360000
          9.53220000
          0.93980000
          0.28460000
   0.00149800  -0.00033900   0.00000000
   0.00935700  -0.00215900   0.00000000
   0.04345900  -0.00995000   0.00000000
   0.14449700  -0.03597300   0.00000000
   0.35574800  -0.09534900   0.00000000
   0.13976100  -0.03651700   0.00000000
   0.46066700  -0.19592600   0.00000000
  -0.00058000   0.59721900   0.00000000
   0.00138500   0.52383300   1.00000000
    6    4
         35.18320000
          7.90400000
          2.30510000
          0.71710000
          0.21370000
          0.05966700
   0.01548100   0.00000000   0.00000000   0.00000000
   0.09796900   0.00000000   0.00000000   0.00000000
   0.30970600   0.00000000   0.00000000   0.00000000
   0.49658700   1.00000000   0.00000000   0.00000000
   0.32523000   0.00000000   1.00000000   0.00000000
   0.01772600   0.00000000   0.00000000   1.00000000
    1    1
          1.00000000
   1.00000000

/Y.Raf-r.Wahlgren.17s13p9d2f.7s6p4d2f.
U. Wahlgren, Knut Faegri, University of Oslo.
YTTRIUM (17s,13p,9d,2f) -> [7s,6p,4d,2f]
    39.0   3
   17    7
     461816.43000000
      69789.97500000
      16241.09800000
       4809.62370000
       1659.52470000
        631.25883000
        258.98496000
        113.67350000
         42.85065200
         19.34872700
          7.34451600
          3.88090590
          2.02106650
          0.75951000
          0.33436950
          0.06548700
          0.02634200
  -0.00263800  -0.00087000   0.00036000   0.00013200   0.00003700   0.00000000   0.00000000
  -0.00821900  -0.00272400   0.00112800   0.00041500   0.00011700   0.00000000   0.00000000
  -0.02479300  -0.00836900   0.00346800   0.00127600   0.00036000   0.00000000   0.00000000
  -0.06871900  -0.02371100   0.00989000   0.00364900   0.00102900   0.00000000   0.00000000
  -0.17216000  -0.06440500   0.02699500   0.00994100   0.00280700   0.00000000   0.00000000
  -0.33625000  -0.14308700   0.06173000   0.02294600   0.00647000   0.00000000   0.00000000
  -0.38114500  -0.23250600   0.10373000   0.03847400   0.01090400   0.00000000   0.00000000
  -0.16373000  -0.06696000   0.03392300   0.01347700   0.00374100   0.00000000   0.00000000
  -0.01267300   0.54243200  -0.37655400  -0.15338700  -0.04356800   0.00000000   0.00000000
   0.00233900   0.53967800  -0.51734800  -0.21784200  -0.06353200   0.00000000   0.00000000
  -0.00150100   0.09055900   0.34580900   0.16638300   0.05206500   0.00000000   0.00000000
   0.00135200  -0.02329900   0.70379800   0.59086600   0.18055100   0.00000000   0.00000000
  -0.00066000   0.00985900   0.25161000   0.21189300   0.08038000   0.00000000   0.00000000
   0.00022300  -0.00300000   0.01302700  -0.80014100  -0.36184100   0.00000000   0.00000000
  -0.00008700   0.00106000  -0.00093100  -0.51914300  -0.37928000   1.00000000   0.00000000
   0.00002100  -0.00026900   0.00027100  -0.00602600   0.93947300   0.00000000   0.00000000
  -0.00000900   0.00011500  -0.00016100   0.00952400   0.27266000   0.00000000   1.00000000
   13    6
       4211.66160000
        985.29943000
        316.60468000
        120.46893000
         50.52883100
         22.39647900
          9.28272230
          3.99274050
          1.59035700
          0.67012470
          0.25610910
          0.09790000
          0.03740000
   0.00386400  -0.00165000   0.00055200   0.00000000   0.00000000   0.00000000
   0.02296100  -0.00985700   0.00329200   0.00000000   0.00000000   0.00000000
   0.09876300  -0.04403700   0.01482900   0.00000000   0.00000000   0.00000000
   0.27407600  -0.12734300   0.04301900   0.00000000   0.00000000   0.00000000
   0.43759600  -0.22327700   0.07709700   0.00000000   0.00000000   0.00000000
   0.30251300  -0.07452000   0.01874000   0.00000000   0.00000000   0.00000000
   0.05264700   0.43918400  -0.19209200   0.00000000   0.00000000   0.00000000
  -0.00242000   0.57143200  -0.29223700   0.00000000   0.00000000   0.00000000
   0.00180500   0.12867200   0.16084500   0.00000000   0.00000000   0.00000000
  -0.00090900  -0.00806200   0.66740400   0.00000000   0.00000000   0.00000000
   0.00042000   0.00436600   0.33277000   1.00000000   0.00000000   0.00000000
  -0.00019500  -0.00189000   0.00650100   0.00000000   1.00000000   0.00000000
   0.00006200   0.00059400   0.00573700   0.00000000   0.00000000   1.00000000
    9    4
        134.39603000
         40.18165400
         15.04459100
          6.11834220
          2.55445080
          0.94914210
          0.32646540
          0.10075180
          0.03110000
   0.02557800  -0.00446000   0.00000000   0.00000000
   0.13888600  -0.02478700   0.00000000   0.00000000
   0.34745600  -0.06089200   0.00000000   0.00000000
   0.44559700  -0.07659300   0.00000000   0.00000000
   0.26996500  -0.00124300   0.00000000   0.00000000
   0.04343900   0.21664700   0.00000000   0.00000000
  -0.00199400   0.43545900   0.00000000   0.00000000
   0.00098100   0.50890900   1.00000000   0.00000000
  -0.00029900   0.12045700   0.00000000   1.00000000
    2    2
          0.80000000
          0.20000000
   1.00000000   0.00000000
   0.00000000   1.00000000

/Zr.Raf-r.Wahlgren.17s13p9d2f.7s6p4d2f.
U. Wahlgren, Knut Faegri, University of Oslo.
ZIRCONIUM (17s,13p,9d,2f) -> [7s,6p,4d,2f]
    40.0   3
   17    7
     477424.51000000
      72179.13700000
      16972.03800000
       5045.97950000
       1728.62440000
        663.01410000
        274.52888000
        118.95280000
         44.33100500
         19.45801200
          6.43655590
          3.13697650
          1.67695770
          0.75794370
          0.35251600
          0.07298370
          0.02863080
  -0.00277400  -0.00091800   0.00038200  -0.00014400   0.00004100   0.00000000   0.00000000
  -0.00854800  -0.00284600   0.00118800  -0.00044900   0.00012600   0.00000000   0.00000000
  -0.02523100  -0.00856000   0.00357000  -0.00134800   0.00038000   0.00000000   0.00000000
  -0.07005100  -0.02427800   0.01023200  -0.00386900   0.00109000   0.00000000   0.00000000
  -0.17479500  -0.06587500   0.02772400  -0.01048400   0.00295900   0.00000000   0.00000000
  -0.33176200  -0.14161900   0.06203100  -0.02361400   0.00664500   0.00000000   0.00000000
  -0.38095200  -0.23331800   0.10360900  -0.03956700   0.01122200   0.00000000   0.00000000
  -0.16621200  -0.06471200   0.03622400  -0.01437200   0.00394500   0.00000000   0.00000000
  -0.00989800   0.57333300  -0.41677300   0.17343000  -0.04916700   0.00000000   0.00000000
   0.00078800   0.53054500  -0.48849300   0.21631000  -0.06346900   0.00000000   0.00000000
  -0.00021100   0.06715600   0.65044500  -0.38494000   0.12092300   0.00000000   0.00000000
   0.00024000  -0.02617200   0.58079100  -0.63623000   0.19591600   0.00000000   0.00000000
  -0.00014600   0.01451700   0.08069300   0.11671800  -0.02034000   0.00000000   0.00000000
   0.00005700  -0.00570400   0.00685800   0.79883300  -0.40829100   0.00000000   0.00000000
  -0.00002000   0.00183100   0.00011400   0.43372100  -0.29239200   1.00000000   0.00000000
   0.00000400  -0.00038800  -0.00000100   0.00667400   0.87423200   0.00000000   0.00000000
  -0.00000200   0.00015500  -0.00003700  -0.00829400   0.32951300   0.00000000   1.00000000
   13    6
       4271.17650000
       1013.35010000
        327.97906000
        124.97249000
         52.67655500
         23.61347400
          9.82793630
          4.24708410
          1.65397780
          0.71245770
          0.27571730
          0.10700000
          0.04130000
   0.00414500  -0.00178800   0.00061800   0.00000000   0.00000000   0.00000000
   0.02385700  -0.01035500   0.00358100   0.00000000   0.00000000   0.00000000
   0.10153500  -0.04580300   0.01595100   0.00000000   0.00000000   0.00000000
   0.27920000  -0.13135700   0.04600100   0.00000000   0.00000000   0.00000000
   0.43480700  -0.22472300   0.08021300   0.00000000   0.00000000   0.00000000
   0.29615000  -0.06936200   0.01758400   0.00000000   0.00000000   0.00000000
   0.05306200   0.44597000  -0.20550000   0.00000000   0.00000000   0.00000000
  -0.00306800   0.57180500  -0.30140700   0.00000000   0.00000000   0.00000000
   0.00212400   0.12088000   0.20733300   0.00000000   0.00000000   0.00000000
  -0.00116100  -0.01093900   0.66684800   0.00000000   0.00000000   0.00000000
   0.00054300   0.00533900   0.29767100   1.00000000   0.00000000   0.00000000
  -0.00025400  -0.00230100   0.00500300   0.00000000   1.00000000   0.00000000
   0.00008000   0.00071900   0.00505400   0.00000000   0.00000000   1.00000000
    9    4
        144.05409000
         42.11728000
         15.82317700
          6.50720030
          2.73369870
          0.97846410
          0.35016420
          0.11671220
          0.03890000
   0.02620000  -0.00556600   0.00000000   0.00000000
   0.14554900  -0.03187500   0.00000000   0.00000000
   0.35315800  -0.07510500   0.00000000   0.00000000
   0.44459000  -0.09471400   0.00000000   0.00000000
   0.26039900   0.01551400   0.00000000   0.00000000
   0.03695100   0.29630500   0.00000000   0.00000000
  -0.00297000   0.47154800   0.00000000   0.00000000
   0.00135400   0.40137300   1.00000000   0.00000000
  -0.00042100   0.08469600   0.00000000   1.00000000
    2    2
          0.80000000
          0.20000000
   1.00000000   0.00000000
   0.00000000   1.00000000

/Nb.Raf-r.Wahlgren.17s13p9d2f.7s6p4d2f.
U. Wahlgren, Knut Faegri, University of Oslo.
NIOBIUM (17s,13p,9d,2f) -> [7s,6p,4d,2f]
    41.0   3
   17    7
     508254.40000000
      78023.23900000
      18146.38400000
       5312.55140000
       1827.88450000
        700.01722000
        288.82729000
        127.00212000
         47.25798900
         20.90060000
          6.96263390
          3.48908010
          1.86337460
          0.83976130
          0.37727280
          0.07617920
          0.03007350
  -0.00283000  -0.00094000   0.00039500  -0.00015200   0.00004200   0.00000000   0.00000000
  -0.00856300  -0.00286200   0.00120400  -0.00046400   0.00012700   0.00000000   0.00000000
  -0.02573600  -0.00876600   0.00368400  -0.00142000   0.00039000   0.00000000   0.00000000
  -0.07094300  -0.02471500   0.01049000  -0.00404900   0.00111100   0.00000000   0.00000000
  -0.17375500  -0.06575200   0.02789600  -0.01077100   0.00296500   0.00000000   0.00000000
  -0.33350700  -0.14306400   0.06308200  -0.02451400   0.00672100   0.00000000   0.00000000
  -0.37862700  -0.23265400   0.10427700  -0.04067700   0.01126000   0.00000000   0.00000000
  -0.16541100  -0.06468200   0.03598000  -0.01455000   0.00386200   0.00000000   0.00000000
  -0.01270900   0.56252700  -0.41131400   0.17500700  -0.04829400   0.00000000   0.00000000
   0.00221400   0.53717500  -0.49957800   0.22662800  -0.06508300   0.00000000   0.00000000
  -0.00131000   0.07395100   0.62287600  -0.37845300   0.11745400   0.00000000   0.00000000
   0.00141600  -0.02989800   0.59155400  -0.64937200   0.19206300   0.00000000   0.00000000
  -0.00091500   0.01586200   0.10013200   0.08719200  -0.00543000   0.00000000   0.00000000
   0.00037600  -0.00595200   0.00523200   0.83907600  -0.42597000   0.00000000   0.00000000
  -0.00012400   0.00182500   0.00075100   0.41640000  -0.25196900   1.00000000   0.00000000
   0.00002700  -0.00040400  -0.00010800   0.00493100   0.83108500   0.00000000   0.00000000
  -0.00001100   0.00016400   0.00001700  -0.00590800   0.35475400   0.00000000   1.00000000
   13    6
       4559.16680000
       1063.06620000
        343.15861000
        131.77572000
         55.60887200
         24.71073100
         10.13806200
          4.45469400
          1.83280490
          0.79471540
          0.30431590
          0.11650000
          0.04460000
   0.00419900  -0.00183100   0.00065100   0.00000000   0.00000000   0.00000000
   0.02448000  -0.01072100   0.00381300   0.00000000   0.00000000   0.00000000
   0.10252800  -0.04682300   0.01677000   0.00000000   0.00000000   0.00000000
   0.27810100  -0.13188000   0.04751400   0.00000000   0.00000000   0.00000000
   0.43773700  -0.22975200   0.08438000   0.00000000   0.00000000   0.00000000
   0.29619000  -0.06137700   0.01441700   0.00000000   0.00000000   0.00000000
   0.04964200   0.46800700  -0.22478500   0.00000000   0.00000000   0.00000000
  -0.00331100   0.54803800  -0.30115000   0.00000000   0.00000000   0.00000000
   0.00208900   0.11269600   0.21707700   0.00000000   0.00000000   0.00000000
  -0.00106400  -0.00576400   0.67028200   0.00000000   0.00000000   0.00000000
   0.00046600   0.00322700   0.29743300   1.00000000   0.00000000   0.00000000
  -0.00021500  -0.00131500   0.00100900   0.00000000   1.00000000   0.00000000
   0.00006800   0.00041200   0.00581600   0.00000000   0.00000000   1.00000000
    9    4
        157.63758000
         46.37754300
         17.46234900
          7.14967480
          3.02385550
          1.16019310
          0.42092950
          0.13191460
          0.04130000
   0.02507800  -0.00601200   0.00000000   0.00000000
   0.14017600  -0.03447500   0.00000000   0.00000000
   0.35062300  -0.08468700   0.00000000   0.00000000
   0.45117800  -0.10610200   0.00000000   0.00000000
   0.25727300   0.01348400   0.00000000   0.00000000
   0.03718800   0.30913200   0.00000000   0.00000000
  -0.00135300   0.50699500   0.00000000   0.00000000
   0.00072200   0.37537400   1.00000000   0.00000000
  -0.00020800   0.04991300   0.00000000   1.00000000
    2    2
          0.80000000
          0.20000000
   1.00000000   0.00000000
   0.00000000   1.00000000

/Mo.Raf-r.Wahlgren.17s13p9d2f.7s6p4d2f.
U. Wahlgren, Knut Faegri, University of Oslo.
MOLYBDENUM (17s,13p,9d,2f) -> [7s,6p,4d,2f]
    42.0   3
   17    7
     564811.58000000
      84340.17200000
      19223.88700000
       5640.42700000
       1935.01080000
        736.03701000
        304.54661000
        134.49152000
         50.36175000
         22.46127900
          7.71121700
          3.92634380
          1.82875310
          0.89138980
          0.39496470
          0.08489780
          0.03236220
  -0.00282500  -0.00094200   0.00039800  -0.00015600   0.00004100   0.00000000   0.00000000
  -0.00875700  -0.00294000   0.00124500  -0.00048800   0.00012900   0.00000000   0.00000000
  -0.02615700  -0.00894800   0.00378900  -0.00148600   0.00039400   0.00000000   0.00000000
  -0.07074900  -0.02476000   0.01057600  -0.00415400   0.00110000   0.00000000   0.00000000
  -0.17469600  -0.06636900   0.02839400  -0.01115700   0.00295900   0.00000000   0.00000000
  -0.33423000  -0.14407900   0.06387900  -0.02525700   0.00668400   0.00000000   0.00000000
  -0.37561200  -0.23121200   0.10472800  -0.04159800   0.01108200   0.00000000   0.00000000
  -0.16695400  -0.06643400   0.03618600  -0.01485100   0.00385100   0.00000000   0.00000000
  -0.01297500   0.55220100  -0.40412600   0.17516300  -0.04676800   0.00000000   0.00000000
   0.00211700   0.54260600  -0.51382200   0.23800700  -0.06554300   0.00000000   0.00000000
  -0.00114800   0.08001300   0.55880300  -0.34473600   0.10172200   0.00000000   0.00000000
   0.00106300  -0.02759000   0.65645700  -0.68556900   0.20309900   0.00000000   0.00000000
  -0.00065800   0.01398600   0.11121300   0.09205000  -0.02063700   0.00000000   0.00000000
   0.00033700  -0.00676700  -0.00559500   0.86382900  -0.40992800   0.00000000   0.00000000
  -0.00010700   0.00202300   0.00298000   0.37660400  -0.23458300   1.00000000   0.00000000
   0.00002400  -0.00045800  -0.00051300   0.00404300   0.73479200   0.00000000   0.00000000
  -0.00001000   0.00017700   0.00018100  -0.00412600   0.45171400   0.00000000   1.00000000
   13    6
       4706.33080000
       1104.29330000
        361.17122000
        139.14298000
         58.35651100
         25.82138900
         10.71847500
          4.77329160
          2.02624570
          0.86764640
          0.34208280
          0.13490000
          0.05320000
   0.00440600  -0.00193900   0.00070500   0.00000000   0.00000000   0.00000000
   0.02494200  -0.01103400   0.00401400   0.00000000   0.00000000   0.00000000
   0.10208800  -0.04705400   0.01726100   0.00000000   0.00000000   0.00000000
   0.27923300  -0.13385400   0.04933700   0.00000000   0.00000000   0.00000000
   0.44228500  -0.23390300   0.08811000   0.00000000   0.00000000   0.00000000
   0.29198600  -0.05710700   0.01218700   0.00000000   0.00000000   0.00000000
   0.04746700   0.47188100  -0.23258600   0.00000000   0.00000000   0.00000000
  -0.00274300   0.54034600  -0.31084400   0.00000000   0.00000000   0.00000000
   0.00175400   0.11243100   0.23191200   0.00000000   0.00000000   0.00000000
  -0.00088000  -0.00355400   0.66908200   0.00000000   0.00000000   0.00000000
   0.00039600   0.00266500   0.28703500   1.00000000   0.00000000   0.00000000
  -0.00018700  -0.00105900   0.00805900   0.00000000   1.00000000   0.00000000
   0.00005900   0.00033100   0.00413100   0.00000000   0.00000000   1.00000000
    9    4
        172.75830000
         51.00548700
         19.26766100
          7.92294140
          3.37858460
          1.32939870
          0.49531800
          0.15895670
          0.05100000
   0.02387200  -0.00621500   0.00000000   0.00000000
   0.13489100  -0.03601700   0.00000000   0.00000000
   0.34478800  -0.09071700   0.00000000   0.00000000
   0.45314900  -0.11558100   0.00000000   0.00000000
   0.26187700   0.01134900   0.00000000   0.00000000
   0.03898300   0.32089700   0.00000000   0.00000000
  -0.00111100   0.51232000   0.00000000   0.00000000
   0.00059300   0.35137700   1.00000000   0.00000000
  -0.00019300   0.04439200   0.00000000   1.00000000
    2    2
          0.80000000
          0.20000000
   1.00000000   0.00000000
   0.00000000   1.00000000

/Tc.Raf-r.Wahlgren.17s13p9d2f.7s6p4d2f.
U. Wahlgren, Knut Faegri, University of Oslo.
TECHNETIUM (17s,13p,9d,2f) -> [7s,6p,4d,2f]
    43.0   3
   17    7
     600968.67000000
      88600.26400000
      20540.93900000
       6011.63830000
       2042.38900000
        774.55946000
        320.84393000
        142.05931000
         54.02575700
         24.06856000
          8.56191920
          4.39220940
          1.90250180
          0.91887550
          0.40621290
          0.09429360
          0.03497360
  -0.00291200  -0.00097500   0.00041500  -0.00016500   0.00004300   0.00000000   0.00000000
  -0.00895400  -0.00301900   0.00128700  -0.00051300   0.00013200   0.00000000   0.00000000
  -0.02601600  -0.00893200   0.00380800  -0.00151800   0.00039200   0.00000000   0.00000000
  -0.07113000  -0.02502300   0.01075600  -0.00429500   0.00110900   0.00000000   0.00000000
  -0.17564700  -0.06691200   0.02883900  -0.01151300   0.00297700   0.00000000   0.00000000
  -0.33382100  -0.14490400   0.06462700  -0.02599500   0.00671400   0.00000000   0.00000000
  -0.37433200  -0.22944700   0.10481100  -0.04225500   0.01096800   0.00000000   0.00000000
  -0.16759300  -0.07081800   0.03819700  -0.01609500   0.00411000   0.00000000   0.00000000
  -0.01347300   0.53999400  -0.39488100   0.17461200  -0.04558100   0.00000000   0.00000000
   0.00211500   0.55400900  -0.53334400   0.25052900  -0.06708400   0.00000000   0.00000000
  -0.00113500   0.08078100   0.49892300  -0.30526500   0.08709900   0.00000000   0.00000000
   0.00095600  -0.02150100   0.71157900  -0.73795200   0.21666700   0.00000000   0.00000000
  -0.00054900   0.00958800   0.12775800   0.12473100  -0.04141300   0.00000000   0.00000000
   0.00030100  -0.00492800  -0.01428200   0.89235100  -0.40733100   0.00000000   0.00000000
  -0.00010200   0.00154700   0.00530800   0.31487300  -0.20568900   1.00000000   0.00000000
   0.00002400  -0.00037100  -0.00105800   0.00471900   0.67045400   0.00000000   0.00000000
  -0.00000900   0.00013500   0.00038000  -0.00329100   0.51597400   0.00000000   1.00000000
   13    6
       4763.86640000
       1153.28280000
        381.59894000
        146.32863000
         61.11977500
         27.09082100
         11.96077500
          5.45772670
          2.37460290
          1.02775450
          0.39738020
          0.15360000
          0.05940000
   0.00466800   0.00206900   0.00076900   0.00000000   0.00000000   0.00000000
   0.02491500   0.01115200   0.00414800   0.00000000   0.00000000   0.00000000
   0.10195200   0.04724700   0.01770300   0.00000000   0.00000000   0.00000000
   0.28188500   0.13717200   0.05174000   0.00000000   0.00000000   0.00000000
   0.44446200   0.23439600   0.09012200   0.00000000   0.00000000   0.00000000
   0.28589600   0.06357500   0.01528100   0.00000000   0.00000000   0.00000000
   0.04622800  -0.43196300  -0.21739900   0.00000000   0.00000000   0.00000000
   0.00051100  -0.55758000  -0.32930700   0.00000000   0.00000000   0.00000000
   0.00030700  -0.14061500   0.17057100   0.00000000   0.00000000   0.00000000
  -0.00012100   0.00318500   0.68183700   0.00000000   0.00000000   0.00000000
   0.00001900  -0.00320800   0.32646300   1.00000000   0.00000000   0.00000000
  -0.00001300   0.00126900   0.00643900   0.00000000   1.00000000   0.00000000
   0.00000300  -0.00040400   0.00567400   0.00000000   0.00000000   1.00000000
    9    4
        188.85753000
         55.90054900
         20.99553200
          8.69206520
          3.78658630
          1.57036130
          0.60884500
          0.20775690
          0.07090000
   0.02264700  -0.00624700   0.00000000   0.00000000
   0.13091100  -0.03693400   0.00000000   0.00000000
   0.34301900  -0.09598500   0.00000000   0.00000000
   0.44948300  -0.12046300   0.00000000   0.00000000
   0.26377900   0.00410400   0.00000000   0.00000000
   0.04378600   0.30646000   0.00000000   0.00000000
  -0.00020600   0.49384200   0.00000000   0.00000000
   0.00060300   0.35740900   1.00000000   0.00000000
  -0.00013500   0.07601900   0.00000000   1.00000000
    2    2
          0.80000000
          0.20000000
   1.00000000   0.00000000
   0.00000000   1.00000000

/Ru.Raf-r.Wahlgren.17s13p9d2f.7s6p4d2f.
U. Wahlgren, Knut Faegri, University of Oslo.
RUTHENIUM (17s,13p,9d,2f) -> [7s,6p,4d,2f]
    44.0   3
   17    7
     615367.62000000
      94409.17700000
      21987.09100000
       6390.42660000
       2154.80150000
        815.70030000
        338.18301000
        149.50385000
         57.49128500
         25.65451500
          9.34932880
          4.68211270
          1.84051770
          0.93367150
          0.41304790
          0.10127310
          0.03677550
  -0.00302900  -0.00101900  -0.00043600   0.00017600   0.00004400   0.00000000   0.00000000
  -0.00894000  -0.00302700  -0.00129800   0.00052500   0.00013100   0.00000000   0.00000000
  -0.02614200  -0.00901000  -0.00386600   0.00156300   0.00039100   0.00000000   0.00000000
  -0.07147000  -0.02526200  -0.01092100   0.00442100   0.00110500   0.00000000   0.00000000
  -0.17628900  -0.06739300  -0.02925900   0.01185200   0.00296600   0.00000000   0.00000000
  -0.33273300  -0.14514500  -0.06506000   0.02651500   0.00662900   0.00000000   0.00000000
  -0.37402000  -0.22873500  -0.10545000   0.04320800   0.01085300   0.00000000   0.00000000
  -0.16867300  -0.07336400  -0.03896100   0.01644100   0.00406500   0.00000000   0.00000000
  -0.01333300   0.53211100   0.38900800  -0.17407300  -0.04399600   0.00000000   0.00000000
   0.00182000   0.56019600   0.54864500  -0.26367500  -0.06833700   0.00000000   0.00000000
  -0.00086500   0.08189200  -0.47813600   0.30376300   0.08376000   0.00000000   0.00000000
   0.00066500  -0.01781300  -0.75552000   0.77267400   0.22086600   0.00000000   0.00000000
  -0.00039000   0.00808800  -0.11483600  -0.22271000  -0.07969600   0.00000000   0.00000000
   0.00024400  -0.00483500   0.01976200  -0.86516500  -0.38431200   0.00000000   0.00000000
  -0.00008300   0.00152400  -0.00605500  -0.26472900  -0.17740000   1.00000000   0.00000000
   0.00002000  -0.00037100   0.00119100  -0.00286200   0.62474000   0.00000000   0.00000000
  -0.00000700   0.00012900  -0.00041000   0.00174900   0.55741600   0.00000000   1.00000000
   13    6
       4964.27200000
       1219.48140000
        401.99193000
        153.22816000
         64.09207700
         28.58942300
         12.65878200
          5.75016070
          2.47790200
          1.08177200
          0.42037500
          0.16340000
          0.06350000
   0.00477300   0.00213300   0.00080700   0.00000000   0.00000000   0.00000000
   0.02480000   0.01119900   0.00424400   0.00000000   0.00000000   0.00000000
   0.10284900   0.04804400   0.01832900   0.00000000   0.00000000   0.00000000
   0.28436600   0.13976300   0.05376200   0.00000000   0.00000000   0.00000000
   0.44259300   0.23515000   0.09201900   0.00000000   0.00000000   0.00000000
   0.28372500   0.06336100   0.01563600   0.00000000   0.00000000   0.00000000
   0.04722100  -0.43862000  -0.22780300   0.00000000   0.00000000   0.00000000
   0.00000400  -0.56101200  -0.33650700   0.00000000   0.00000000   0.00000000
   0.00054600  -0.13064100   0.20551700   0.00000000   0.00000000   0.00000000
  -0.00027000   0.00326500   0.67978500   0.00000000   0.00000000   0.00000000
   0.00008500  -0.00294600   0.30478100   1.00000000   0.00000000   0.00000000
  -0.00004400   0.00111400   0.00443400   0.00000000   1.00000000   0.00000000
   0.00001300  -0.00035200   0.00539100   0.00000000   0.00000000   1.00000000
    9    4
        206.11199000
         61.04057300
         23.14148700
          9.55973440
          4.08740660
          1.68113770
          0.66287330
          0.23028770
          0.08000000
   0.02167500  -0.00626500   0.00000000   0.00000000
   0.12565800  -0.03723300   0.00000000   0.00000000
   0.33421600  -0.09809200   0.00000000   0.00000000
   0.45938700  -0.13008000   0.00000000   0.00000000
   0.27001100   0.01009800   0.00000000   0.00000000
   0.03924900   0.32754600   0.00000000   0.00000000
   0.00069900   0.48608200   0.00000000   0.00000000
   0.00029600   0.33964300   1.00000000   0.00000000
   0.00001300   0.07170900   0.00000000   1.00000000
    2    2
          0.80000000
          0.20000000
   1.00000000   0.00000000
   0.00000000   1.00000000

/Rh.Raf-r.Wahlgren.17s13p9d2f.7s6p4d2f.
U. Wahlgren, Knut Faegri, University of Oslo.
RHODIUM (17s,13p,9d,2f) -> [7s,6p,4d,2f]
    45.0   3
   17    7
     666938.46000000
     101663.95000000
      23507.47100000
       6770.97330000
       2274.16400000
        860.12987000
        356.22922000
        157.23074000
         60.82307600
         27.20075500
          9.99502770
          5.05871500
          2.04517860
          1.02716460
          0.45378900
          0.10732170
          0.03864000
  -0.00305800  -0.00103200   0.00044500   0.00018200   0.00004400   0.00000000   0.00000000
  -0.00901700  -0.00306500   0.00132200   0.00054100   0.00013100   0.00000000   0.00000000
  -0.02634800  -0.00911600   0.00393500   0.00161000   0.00038900   0.00000000   0.00000000
  -0.07191600  -0.02553400   0.01110300   0.00455000   0.00109800   0.00000000   0.00000000
  -0.17611500  -0.06758300   0.02952500   0.01210900   0.00292700   0.00000000   0.00000000
  -0.33173800  -0.14524500   0.06547600   0.02702100   0.00652500   0.00000000   0.00000000
  -0.37434100  -0.22869700   0.10613600   0.04403600   0.01068100   0.00000000   0.00000000
  -0.16961800  -0.07459000   0.03958000   0.01692200   0.00404800   0.00000000   0.00000000
  -0.01340800   0.52759000  -0.38793500  -0.17607600  -0.04301200   0.00000000   0.00000000
   0.00173800   0.56304400  -0.55535200  -0.27080500  -0.06777700   0.00000000   0.00000000
  -0.00082800   0.08483200   0.46375800   0.29935100   0.07975300   0.00000000   0.00000000
   0.00064600  -0.01865900   0.76323200   0.79121700   0.21899600   0.00000000   0.00000000
  -0.00037000   0.00826600   0.12207100  -0.20310200  -0.07323200   0.00000000   0.00000000
   0.00022100  -0.00471700  -0.01808500  -0.87703500  -0.36566000   0.00000000   0.00000000
  -0.00007400   0.00145400   0.00569600  -0.27555500  -0.18006700   1.00000000   0.00000000
   0.00001700  -0.00034200  -0.00106500  -0.00419400   0.57900400   0.00000000   0.00000000
  -0.00000600   0.00012200   0.00037600   0.00137200   0.59405800   0.00000000   1.00000000
   13    6
       5411.75780000
       1296.65640000
        420.90869000
        160.23018000
         67.51500100
         30.40099500
         13.62216900
          6.25372900
          2.74612480
          1.19656370
          0.46435070
          0.11900000
          0.03870000
   0.00468300  -0.00210900   0.00081100   0.00000000   0.00000000   0.00000000
   0.02501700  -0.01138900   0.00438600   0.00000000   0.00000000   0.00000000
   0.10442500  -0.04916700   0.01906800   0.00000000   0.00000000   0.00000000
   0.28479400  -0.14126400   0.05524000   0.00000000   0.00000000   0.00000000
   0.43790400  -0.23432600   0.09328200   0.00000000   0.00000000   0.00000000
   0.28377500  -0.06728600   0.01741600   0.00000000   0.00000000   0.00000000
   0.04968300   0.42706100  -0.22622700   0.00000000   0.00000000   0.00000000
   0.00003400   0.56472100  -0.34712500   0.00000000   0.00000000   0.00000000
   0.00058200   0.13894200   0.19218800   0.00000000   0.00000000   0.00000000
  -0.00027800  -0.00132200   0.68559300   0.00000000   0.00000000   0.00000000
   0.00006000   0.00206700   0.31240000   1.00000000   0.00000000   0.00000000
  -0.00002300  -0.00045600   0.00997200   0.00000000   1.00000000   0.00000000
   0.00000800   0.00016700  -0.00000600   0.00000000   0.00000000   1.00000000
    9    4
        224.17203000
         66.35385100
         25.11933000
         10.37397500
          4.44783140
          1.82660170
          0.71420590
          0.24613680
          0.07620000
   0.02072500  -0.00623500   0.00000000   0.00000000
   0.12200700  -0.03763900   0.00000000   0.00000000
   0.33147500  -0.10143100   0.00000000   0.00000000
   0.46198100  -0.13641800   0.00000000   0.00000000
   0.27214600   0.01176600   0.00000000   0.00000000
   0.03941200   0.34518700   0.00000000   0.00000000
   0.00063400   0.48979500   0.00000000   0.00000000
   0.00044200   0.32817700   1.00000000   0.00000000
   0.00000800   0.05961100   0.00000000   1.00000000
    2    2
          0.80000000
          0.20000000
   1.00000000   0.00000000
   0.00000000   1.00000000

/Pd.Raf-r.Wahlgren.17s13p9d2f.7s6p4d2f.
U. Wahlgren, Knut Faegri, University of Oslo.
PALLADIUM (17s,13p,9d,2f) -> [7s,6p,4d,2f]
    46.0   3
   17    7
     722049.07000000
     109352.60000000
      25013.15100000
       7155.55590000
       2398.15000000
        905.94369000
        374.64803000
        165.14908000
         64.11928400
         28.71975700
         10.57934800
          5.41188880
          2.24996060
          1.11647420
          0.48448270
          0.11247080
          0.04006740
  -0.00308600  -0.00104600   0.00045300   0.00018700   0.00004400   0.00000000   0.00000000
  -0.00911600  -0.00311100   0.00135000   0.00055800   0.00013000   0.00000000   0.00000000
  -0.02666700  -0.00926300   0.00402200   0.00166400   0.00038800   0.00000000   0.00000000
  -0.07229800  -0.02578400   0.01127500   0.00467200   0.00108800   0.00000000   0.00000000
  -0.17587900  -0.06775700   0.02977200   0.01234800   0.00287900   0.00000000   0.00000000
  -0.33101200  -0.14542700   0.06592700   0.02750800   0.00640900   0.00000000   0.00000000
  -0.37460700  -0.22882000   0.10681600   0.04483400   0.01049000   0.00000000   0.00000000
  -0.17036300  -0.07505300   0.03991600   0.01722100   0.00397700   0.00000000   0.00000000
  -0.01352000   0.52516200  -0.38903800  -0.17874400  -0.04214500   0.00000000   0.00000000
   0.00171100   0.56446500  -0.55952900  -0.27684600  -0.06686900   0.00000000   0.00000000
  -0.00082500   0.08684000   0.46108800   0.30430200   0.07834500   0.00000000   0.00000000
   0.00065500  -0.01981700   0.76196300   0.80185500   0.21451700   0.00000000   0.00000000
  -0.00036600   0.00855300   0.12600300  -0.19322100  -0.06940900   0.00000000   0.00000000
   0.00020700  -0.00460800  -0.01554900  -0.89260700  -0.35185600   0.00000000   0.00000000
  -0.00006700   0.00138000   0.00509400  -0.27669400  -0.17745300   1.00000000   0.00000000
   0.00001600  -0.00032600  -0.00094700  -0.00305400   0.54675700   0.00000000   0.00000000
  -0.00000600   0.00011800   0.00033900   0.00038800   0.61899100   0.00000000   1.00000000
   13    6
       5641.59920000
       1369.83110000
        439.60614000
        167.49952000
         71.08694300
         32.27830200
         14.66536800
          6.80629510
          3.03040990
          1.31341920
          0.50827980
          0.11000000
          0.04000000
   0.00475600  -0.00215700   0.00084200   0.00000000   0.00000000   0.00000000
   0.02509900  -0.01151600   0.00449900   0.00000000   0.00000000   0.00000000
   0.10612500  -0.05034400   0.01981400   0.00000000   0.00000000   0.00000000
   0.28443000  -0.14232500   0.05646200   0.00000000   0.00000000   0.00000000
   0.43391500  -0.23367000   0.09449700   0.00000000   0.00000000   0.00000000
   0.28360800  -0.07129400   0.01915300   0.00000000   0.00000000   0.00000000
   0.05219500   0.41335900  -0.22242400   0.00000000   0.00000000   0.00000000
   0.00017800   0.56913400  -0.35814500   0.00000000   0.00000000   0.00000000
   0.00060200   0.14928500   0.17949000   0.00000000   0.00000000   0.00000000
  -0.00029200  -0.00022000   0.69152000   0.00000000   0.00000000   0.00000000
   0.00005600   0.00196900   0.31908300   1.00000000   0.00000000   0.00000000
  -0.00002200  -0.00039000   0.01093600   0.00000000   1.00000000   0.00000000
   0.00000900   0.00016800  -0.00144800   0.00000000   0.00000000   1.00000000
    9    4
        242.47077000
         71.70931700
         27.05091300
         11.16811900
          4.78979460
          1.99012450
          0.77945510
          0.26602310
          0.09000000
   0.01993200  -0.00621000   0.00000000   0.00000000
   0.11934800  -0.03812300   0.00000000   0.00000000
   0.33035100  -0.10488400   0.00000000   0.00000000
   0.46466300  -0.14196400   0.00000000   0.00000000
   0.27245900   0.01396400   0.00000000   0.00000000
   0.03822800   0.35342500   0.00000000   0.00000000
   0.00143000   0.49392800   0.00000000   0.00000000
   0.00037900   0.31522100   1.00000000   0.00000000
   0.00009300   0.05364100   0.00000000   1.00000000
    2    2
          0.80000000
          0.20000000
   1.00000000   0.00000000
   0.00000000   1.00000000

/Hf.Raf-r.Wahlgren.22s18p14d9f.8s7p5d3f.
U. Wahlgren, Knut Faegri, University of Oslo.
HAFNIUM (22s,18p,14d,9f) -> [8s,7p,5d,3f]
    72.0   3
   22    8
   32424058.00000000
    4855383.30000000
    1104952.80000000
     312966.12000000
     102095.99000000
      36853.57500000
      14370.53300000
       5957.48470000
       2595.56110000
       1177.32810000
        548.24375000
        242.84439000
        124.11045000
         62.73210200
         28.11927800
         14.67275500
          6.23300520
          3.03522120
          1.11110000
          0.50477000
          0.10131000
          0.04053200
   0.00103500   0.00038900  -0.00018400  -0.00009000   0.00003500  -0.00001000   0.00000000   0.00000000
   0.00251700   0.00094800  -0.00044900  -0.00021900   0.00008600  -0.00002400   0.00000000   0.00000000
   0.00587400   0.00222100  -0.00105100  -0.00051300   0.00020300  -0.00005700   0.00000000   0.00000000
   0.01228900   0.00468600  -0.00222200  -0.00108500   0.00042900  -0.00012100   0.00000000   0.00000000
   0.02496500   0.00963100  -0.00457000  -0.00223400   0.00088200  -0.00025000   0.00000000   0.00000000
   0.04897600   0.01935200  -0.00924000  -0.00451600   0.00178500  -0.00050600   0.00000000   0.00000000
   0.09403800   0.03838000  -0.01834400  -0.00899400   0.00355400  -0.00100500   0.00000000   0.00000000
   0.17097400   0.07481300  -0.03644000  -0.01785600   0.00707000  -0.00200400   0.00000000   0.00000000
   0.27388200   0.13254000  -0.06494400  -0.03213900   0.01270700  -0.00359100   0.00000000   0.00000000
   0.32538100   0.19345600  -0.10051800  -0.04971200   0.01977800  -0.00562000   0.00000000   0.00000000
   0.21196100   0.11614300  -0.05580600  -0.02851800   0.01118300  -0.00312500   0.00000000   0.00000000
   0.04039800  -0.26769400   0.19346500   0.10842000  -0.04358200   0.01226600   0.00000000   0.00000000
  -0.00356900  -0.56112900   0.58291500   0.33447700  -0.13856500   0.03971900   0.00000000   0.00000000
   0.00183800  -0.31673900   0.25731800   0.17429300  -0.07190900   0.02005200   0.00000000   0.00000000
  -0.00099500  -0.02299200  -0.81874400  -0.88595700   0.41427700  -0.11914000   0.00000000   0.00000000
   0.00055400  -0.00021500  -0.51007900  -0.57222900   0.28747700  -0.08602800   0.00000000   0.00000000
  -0.00025700   0.00088100  -0.05705900   0.93540800  -0.69983800   0.22007200   0.00000000   0.00000000
   0.00013500  -0.00044100   0.01055800   0.57500300  -0.58455800   0.19054500   0.00000000   0.00000000
  -0.00005400   0.00019700  -0.00403200   0.02295300   0.71138300  -0.28128800   0.00000000   0.00000000
   0.00002200  -0.00009000   0.00172700  -0.00088100   0.68424600  -0.49900600   1.00000000   0.00000000
  -0.00000600   0.00002200  -0.00041700   0.00011700   0.03382400   0.70416700   0.00000000   0.00000000
   0.00000200  -0.00001000   0.00018200  -0.00009500  -0.01830900   0.51942900   0.00000000   1.00000000
   18    7
      79151.99200000
      18743.64200000
       6086.29380000
       2326.89810000
        986.85016000
        449.85109000
        215.66170000
        107.02907000
         53.40996700
         27.51601000
         14.20651500
          6.97779270
          3.36274140
          1.36815590
          0.61190440
          0.24733601
          0.07236675
          0.02895156
   0.00149500  -0.00075900   0.00036600  -0.00012900   0.00000000   0.00000000   0.00000000
   0.00440000  -0.00225000   0.00108700  -0.00038300   0.00000000   0.00000000   0.00000000
   0.01455100  -0.00751600   0.00364100  -0.00128100   0.00000000   0.00000000   0.00000000
   0.04301900  -0.02260500   0.01098000  -0.00387600   0.00000000   0.00000000   0.00000000
   0.11584000  -0.06284000   0.03080600  -0.01085500   0.00000000   0.00000000   0.00000000
   0.24836100  -0.14121600   0.06985800  -0.02478700   0.00000000   0.00000000   0.00000000
   0.37159600  -0.22271200   0.11218800  -0.03961800   0.00000000   0.00000000   0.00000000
   0.30192200  -0.12517500   0.05235400  -0.01832700   0.00000000   0.00000000   0.00000000
   0.09318800   0.29138800  -0.21673200   0.08434300   0.00000000   0.00000000   0.00000000
   0.00313900   0.56802100  -0.46344200   0.17821600   0.00000000   0.00000000   0.00000000
   0.00141000   0.26300200  -0.00503100  -0.01646100   0.00000000   0.00000000   0.00000000
  -0.00078900   0.02652000   0.65404000  -0.35948600   0.00000000   0.00000000   0.00000000
   0.00030000   0.00067300   0.45944000  -0.23834900   0.00000000   0.00000000   0.00000000
  -0.00014500   0.00011300   0.05052000   0.40689500   0.00000000   0.00000000   0.00000000
   0.00007600  -0.00004000  -0.00382700   0.60826100   0.00000000   0.00000000   0.00000000
  -0.00002900   0.00000900   0.00135800   0.19656500   1.00000000   0.00000000   0.00000000
   0.00001000  -0.00000400  -0.00043600   0.00300400   0.00000000   1.00000000   0.00000000
  -0.00000400   0.00000100   0.00016600   0.00137900   0.00000000   0.00000000   1.00000000
   14    5
       3406.96200000
       1030.26910000
        402.02486000
        177.62742000
         84.48027700
         41.78793200
         21.18604500
         10.55846600
          5.11639820
          2.37284930
          0.90073781
          0.33261089
          0.11120664
          0.03718000
   0.00124100   0.00060900   0.00011500   0.00000000   0.00000000
   0.00822500   0.00408100   0.00078200   0.00000000   0.00000000
   0.03860900   0.01926400   0.00364800   0.00000000   0.00000000
   0.12742000   0.06512300   0.01254200   0.00000000   0.00000000
   0.28663200   0.14667400   0.02778200   0.00000000   0.00000000
   0.40049200   0.19356600   0.03741700   0.00000000   0.00000000
   0.28110100   0.01667100  -0.00340400   0.00000000   0.00000000
   0.07319000  -0.36477500  -0.08041100   0.00000000   0.00000000
   0.00397700  -0.49903600  -0.11825000   0.00000000   0.00000000
   0.00076300  -0.24434300   0.01679500   0.00000000   0.00000000
  -0.00006600  -0.02771400   0.27496500   0.00000000   0.00000000
   0.00005300   0.00175800   0.46259700   0.00000000   0.00000000
  -0.00002100  -0.00081300   0.42427500   1.00000000   0.00000000
   0.00000700   0.00025300   0.09445800   0.00000000   1.00000000
    9    3
        267.05004000
         92.11611900
         38.55705200
         17.48554800
          8.11797810
          3.68952190
          1.58669690
          0.60507257
          0.23074000
   0.00333500   0.00000000   0.00000000
   0.02473300   0.00000000   0.00000000
   0.09512500   0.00000000   0.00000000
   0.22904600   0.00000000   0.00000000
   0.34492600   0.00000000   0.00000000
   0.35382000   0.00000000   0.00000000
   0.25086500   0.00000000   0.00000000
   0.09941900   1.00000000   0.00000000
   0.01089000   0.00000000   1.00000000

/Ta.Raf-r.Wahlgren.22s18p14d9f.8s7p5d3f.
U. Wahlgren, Knut Faegri, University of Oslo.
TANTALUM (22s,18p,14d,9f) -> [8s,7p,5d,3f]
    73.0   3
   22    8
   33528956.00000000
    5020849.50000000
    1142610.10000000
     323632.38000000
     105575.55000000
      38109.56600000
      14860.25200000
       6160.47000000
       2683.96750000
       1217.40610000
        566.96048000
        251.73110000
        128.65628000
         65.01866200
         29.15600500
         15.23384300
          6.49266500
          3.18265000
          1.19158500
          0.54357000
          0.11045300
          0.04349400
   0.00107300   0.00040500  -0.00019200  -0.00009400   0.00003800  -0.00001100   0.00000000   0.00000000
   0.00259900   0.00098300  -0.00046600  -0.00022800   0.00009200  -0.00002600   0.00000000   0.00000000
   0.00604200   0.00229500  -0.00108800  -0.00053300   0.00021400  -0.00006100   0.00000000   0.00000000
   0.01258800   0.00482200  -0.00229100  -0.00112200   0.00045000  -0.00012900   0.00000000   0.00000000
   0.02545800   0.00986700  -0.00469100  -0.00230000   0.00092300  -0.00026400   0.00000000   0.00000000
   0.04968200   0.01972200  -0.00943600  -0.00462700   0.00185700  -0.00053200   0.00000000   0.00000000
   0.09485500   0.03890100  -0.01863200  -0.00916400   0.00367600  -0.00105200   0.00000000   0.00000000
   0.17147400   0.07536900  -0.03678800  -0.01808700   0.00727000  -0.00208300   0.00000000   0.00000000
   0.27343600   0.13282600  -0.06521300  -0.03237100   0.01299300  -0.00371600   0.00000000   0.00000000
   0.32425100   0.19287400  -0.10040100  -0.04982600   0.02012400  -0.00577600   0.00000000   0.00000000
   0.21168400   0.11492000  -0.05500300  -0.02814600   0.01120000  -0.00318300   0.00000000   0.00000000
   0.04071600  -0.26690400   0.19353000   0.10879700  -0.04441800   0.01270000   0.00000000   0.00000000
  -0.00346600  -0.56033700   0.58322100   0.33621400  -0.14147000   0.04088800   0.00000000   0.00000000
   0.00180300  -0.31755900   0.25731200   0.17411000  -0.07293700   0.02082200   0.00000000   0.00000000
  -0.00098000  -0.02301700  -0.81951400  -0.89140800   0.42413200  -0.12406900   0.00000000   0.00000000
   0.00054900  -0.00027300  -0.50875500  -0.57150800   0.29207500  -0.08752300   0.00000000   0.00000000
  -0.00025900   0.00093400  -0.05814100   0.93442500  -0.71398100   0.22591900   0.00000000   0.00000000
   0.00013900  -0.00048100   0.01119300   0.57700900  -0.60255900   0.20399900   0.00000000   0.00000000
  -0.00005600   0.00021500  -0.00430500   0.02381300   0.72357300  -0.30581500   0.00000000   0.00000000
   0.00002300  -0.00009600   0.00181700  -0.00082300   0.68723500  -0.48216200   1.00000000   0.00000000
  -0.00000600   0.00002300  -0.00042900   0.00011700   0.03546900   0.66757400   0.00000000   0.00000000
   0.00000200  -0.00001000   0.00018400  -0.00009600  -0.01716200   0.55179400   0.00000000   1.00000000
   18    7
      82480.16600000
      19531.51900000
       6342.17720000
       2424.84200000
       1028.48420000
        468.91951000
        224.87669000
        111.67349000
         55.84429600
         28.80614900
         14.90170200
          7.32641800
          3.54720600
          1.46014900
          0.65878200
          0.26719900
          0.07889500
          0.03106700
   0.00152600  -0.00077700   0.00037700  -0.00013500   0.00000000   0.00000000   0.00000000
   0.00444600  -0.00228000   0.00110600  -0.00039800   0.00000000   0.00000000   0.00000000
   0.01458800  -0.00755700   0.00367600  -0.00132200   0.00000000   0.00000000   0.00000000
   0.04281000  -0.02256100   0.01100400  -0.00397000   0.00000000   0.00000000   0.00000000
   0.11486600  -0.06246600   0.03075200  -0.01107600   0.00000000   0.00000000   0.00000000
   0.24623700  -0.14031900   0.06969600  -0.02527600   0.00000000   0.00000000   0.00000000
   0.37016700  -0.22222900   0.11241400  -0.04058600   0.00000000   0.00000000   0.00000000
   0.30400600  -0.12868700   0.05458200  -0.01953400   0.00000000   0.00000000   0.00000000
   0.09580400   0.28392700  -0.21268500   0.08471700   0.00000000   0.00000000   0.00000000
   0.00358500   0.56794000  -0.46553100   0.18333900   0.00000000   0.00000000   0.00000000
   0.00140400   0.26941500  -0.01625400  -0.01214100   0.00000000   0.00000000   0.00000000
  -0.00079200   0.02822300   0.65090300  -0.36749300   0.00000000   0.00000000   0.00000000
   0.00030600   0.00056200   0.46639600  -0.25119300   0.00000000   0.00000000   0.00000000
  -0.00014900   0.00015600   0.05243000   0.41426100   0.00000000   0.00000000   0.00000000
   0.00007800  -0.00006700  -0.00385900   0.61005500   0.00000000   0.00000000   0.00000000
  -0.00002900   0.00001700   0.00137100   0.19311600   1.00000000   0.00000000   0.00000000
   0.00001100  -0.00000700  -0.00042800   0.00310900   0.00000000   1.00000000   0.00000000
  -0.00000400   0.00000300   0.00015900   0.00128300   0.00000000   0.00000000   1.00000000
   14    5
       3517.99600000
       1063.91530000
        415.19613000
        183.49294000
         87.30557200
         43.21695700
         21.93114900
         10.94799100
          5.32371200
          2.49176900
          0.97267300
          0.37021800
          0.12741600
          0.04380000
   0.00125700  -0.00062200   0.00013300   0.00000000   0.00000000
   0.00827900  -0.00413900   0.00089400   0.00000000   0.00000000
   0.03874400  -0.01948300   0.00416800   0.00000000   0.00000000
   0.12770700  -0.06577000   0.01428500   0.00000000   0.00000000
   0.28709600  -0.14807100   0.03170200   0.00000000   0.00000000
   0.40052500  -0.19482900   0.04238000   0.00000000   0.00000000
   0.28017400  -0.01512100  -0.00424700   0.00000000   0.00000000
   0.07284500   0.36754500  -0.09252300   0.00000000   0.00000000
   0.00396000   0.49816800  -0.13312700   0.00000000   0.00000000
   0.00075900   0.24004900   0.02053400   0.00000000   0.00000000
  -0.00008300   0.02706700   0.30972200   0.00000000   0.00000000
   0.00005700  -0.00156700   0.47800100   0.00000000   0.00000000
  -0.00002300   0.00072700   0.37541500   1.00000000   0.00000000
   0.00000700  -0.00022900   0.07577700   0.00000000   1.00000000
    9    3
        289.08664000
         99.86384700
         41.96309500
         19.11286900
          8.94009000
          4.10691400
          1.79388500
          0.69698300
          0.27080000
   0.00311300   0.00000000   0.00000000
   0.02334700   0.00000000   0.00000000
   0.09116700   0.00000000   0.00000000
   0.22386000   0.00000000   0.00000000
   0.34409400   0.00000000   0.00000000
   0.35748000   0.00000000   0.00000000
   0.25089400   0.00000000   0.00000000
   0.09386300   1.00000000   0.00000000
   0.00886200   0.00000000   1.00000000

/W.Raf-r.Wahlgren.22s18p14d9f.8s7p5d3f.
U. Wahlgren, Knut Faegri, University of Oslo.
TUNGSTEN (22s,18p,14d,9f) -> [8s,7p,5d,3f]
    74.0   3
   22    8
   34649720.00000000
    5188661.00000000
    1180797.50000000
     334448.33000000
     109103.91000000
      39383.16800000
      15356.84100000
       6366.30640000
       2773.61980000
       1258.05450000
        585.95113000
        260.75427000
        133.26366000
         67.33580100
         30.20985100
         15.80463800
          6.75665650
          3.33465210
          1.27500100
          0.58234500
          0.11858100
          0.04606300
   0.00111400   0.00042200  -0.00020000  -0.00009800   0.00004000   0.00001100   0.00000000   0.00000000
   0.00268400   0.00102000  -0.00048500  -0.00023800   0.00009700   0.00002800   0.00000000   0.00000000
   0.00621700   0.00237200  -0.00112700  -0.00055400   0.00022500   0.00006400   0.00000000   0.00000000
   0.01289700   0.00496300  -0.00236300  -0.00116100   0.00047200   0.00013500   0.00000000   0.00000000
   0.02596700   0.01011200  -0.00481700  -0.00237000   0.00096400   0.00027500   0.00000000   0.00000000
   0.05041200   0.02010700  -0.00963900  -0.00474200   0.00193000   0.00055100   0.00000000   0.00000000
   0.09570900   0.03944200  -0.01893000  -0.00934000   0.00379900   0.00108300   0.00000000   0.00000000
   0.17202300   0.07595400  -0.03714900  -0.01832800   0.00747000   0.00213200   0.00000000   0.00000000
   0.27303600   0.13313900  -0.06549200  -0.03261300   0.01327300   0.00378300   0.00000000   0.00000000
   0.32309600   0.19228500  -0.10027300  -0.04993700   0.02045300   0.00584400   0.00000000   0.00000000
   0.21130600   0.11355700  -0.05410800  -0.02772800   0.01117800   0.00317300   0.00000000   0.00000000
   0.04099100  -0.26644700   0.19385100   0.10933700  -0.04527300  -0.01292300   0.00000000   0.00000000
  -0.00336200  -0.55953700   0.58358200   0.33800600  -0.14431000  -0.04149800   0.00000000   0.00000000
   0.00176900  -0.31806800   0.25673000   0.17359800  -0.07370400  -0.02108000   0.00000000   0.00000000
  -0.00096500  -0.02297900  -0.82051300  -0.89741400   0.43388900   0.12683600   0.00000000   0.00000000
   0.00054500  -0.00034500  -0.50709200  -0.57014300   0.29627400   0.08809900   0.00000000   0.00000000
  -0.00026100   0.00099400  -0.05915600   0.93444500  -0.72920600  -0.22974200   0.00000000   0.00000000
   0.00014200  -0.00052500   0.01183800   0.57799900  -0.61791900  -0.21152800   0.00000000   0.00000000
  -0.00005700   0.00023500  -0.00456200   0.02464800   0.73628800   0.32122000   0.00000000   0.00000000
   0.00002300  -0.00010300   0.00188800  -0.00077300   0.68924100   0.46142100   1.00000000   0.00000000
  -0.00000500   0.00002400  -0.00043700   0.00013000   0.03680400  -0.61904400   0.00000000   0.00000000
   0.00000200  -0.00001100   0.00018500  -0.00009800  -0.01592900  -0.59162400   0.00000000   1.00000000
   18    7
      85893.10500000
      20339.47700000
       6604.59100000
       2525.29130000
       1071.18720000
        488.47984000
        234.33183000
        116.44139000
         58.34650200
         30.13146500
         15.61531300
          7.68510950
          3.73851800
          1.55620150
          0.70691380
          0.28767650
          0.08470130
          0.03290230
   0.00155800  -0.00079600  -0.00038700  -0.00014200   0.00000000   0.00000000   0.00000000
   0.00449400  -0.00231200  -0.00112600  -0.00041300   0.00000000   0.00000000   0.00000000
   0.01463300  -0.00760100  -0.00371300  -0.00136200   0.00000000   0.00000000   0.00000000
   0.04262700  -0.02252700  -0.01103500  -0.00406100   0.00000000   0.00000000   0.00000000
   0.11395100  -0.06211900  -0.03071300  -0.01128300   0.00000000   0.00000000   0.00000000
   0.24418900  -0.13945500  -0.06955700  -0.02572800   0.00000000   0.00000000   0.00000000
   0.36872800  -0.22171900  -0.11263500  -0.04148500   0.00000000   0.00000000   0.00000000
   0.30596200  -0.13201100  -0.05672900  -0.02071700   0.00000000   0.00000000   0.00000000
   0.09838800   0.27666000   0.20877400   0.08495200   0.00000000   0.00000000   0.00000000
   0.00404900   0.56772200   0.46756100   0.18814600   0.00000000   0.00000000   0.00000000
   0.00139400   0.27566200   0.02710800  -0.00770500   0.00000000   0.00000000   0.00000000
  -0.00079300   0.02992500  -0.64794500  -0.37516300   0.00000000   0.00000000   0.00000000
   0.00031100   0.00044800  -0.47293400  -0.26329400   0.00000000   0.00000000   0.00000000
  -0.00015200   0.00019800  -0.05422400   0.42115100   0.00000000   0.00000000   0.00000000
   0.00008000  -0.00009500   0.00382200   0.61130500   0.00000000   0.00000000   0.00000000
  -0.00002900   0.00002400  -0.00136800   0.19080800   1.00000000   0.00000000   0.00000000
   0.00001000  -0.00001000   0.00041300   0.00316100   0.00000000   1.00000000   0.00000000
  -0.00000400   0.00000300  -0.00015200   0.00114100   0.00000000   0.00000000   1.00000000
   14    5
       3623.05700000
       1095.75000000
        427.65354000
        189.03491000
         89.97066500
         44.56261700
         22.63039300
         11.31189300
          5.51723500
          2.60352060
          1.04409990
          0.40629060
          0.14261020
          0.05000000
   0.00127900  -0.00063800   0.00014900   0.00000000   0.00000000
   0.00836700  -0.00421500   0.00099300   0.00000000   0.00000000
   0.03903000  -0.01978300   0.00462300   0.00000000   0.00000000
   0.12841100  -0.06665200   0.01579000   0.00000000   0.00000000
   0.28818100  -0.14981800   0.03505500   0.00000000   0.00000000
   0.40072800  -0.19607900   0.04642100   0.00000000   0.00000000
   0.27849800  -0.01228200  -0.00545100   0.00000000   0.00000000
   0.07193800   0.37199200  -0.10329900   0.00000000   0.00000000
   0.00386800   0.49726700  -0.14491100   0.00000000   0.00000000
   0.00074900   0.23388900   0.02556400   0.00000000   0.00000000
  -0.00009700   0.02590300   0.33674800   0.00000000   0.00000000
   0.00006000  -0.00134400   0.48755700   0.00000000   0.00000000
  -0.00002500   0.00054900   0.33853400   1.00000000   0.00000000
   0.00000800  -0.00020000   0.05828400   0.00000000   1.00000000
    9    3
        310.88315000
        107.53531000
         45.33482600
         20.72549000
          9.75544590
          4.52209010
          2.00094530
          0.78906790
          0.31100000
   0.00293800   0.00000000   0.00000000
   0.02222800   0.00000000   0.00000000
   0.08795800   0.00000000   0.00000000
   0.21955400   0.00000000   0.00000000
   0.34343900   0.00000000   0.00000000
   0.36059300   0.00000000   0.00000000
   0.25055300   0.00000000   0.00000000
   0.08930700   1.00000000   0.00000000
   0.00751400   0.00000000   1.00000000

/Re.Raf-r.Wahlgren.22s18p14d9f.8s7p5d3f.
U. Wahlgren, Knut Faegri, University of Oslo.
RHENIUM (22s,18p,14d,9f) -> [8s,7p,5d,3f]
    75.0   3
   22    8
   35781883.00000000
    5358191.00000000
    1219376.20000000
     345374.95000000
     112668.31000000
      40669.76800000
      15858.49700000
       6574.24730000
       2864.19520000
       1299.12900000
        605.14844000
        269.87169000
        137.91355000
         69.67583900
         31.27731800
         16.38298000
          7.02346900
          3.49020670
          1.36069760
          0.62073020
          0.12544660
          0.04817000
   0.00115600  -0.00044000  -0.00020900  -0.00010300  -0.00004300   0.00001200   0.00000000   0.00000000
   0.00277300  -0.00105900  -0.00050400  -0.00024800  -0.00010200   0.00002900   0.00000000   0.00000000
   0.00640000  -0.00245300  -0.00116800  -0.00057600  -0.00023700   0.00006800   0.00000000   0.00000000
   0.01321800  -0.00511000  -0.00243700  -0.00120200  -0.00049600   0.00014200   0.00000000   0.00000000
   0.02649700  -0.01036700  -0.00494800  -0.00244200  -0.00100700   0.00028800   0.00000000   0.00000000
   0.05117200  -0.02050700  -0.00985000  -0.00486200  -0.00200600   0.00057300   0.00000000   0.00000000
   0.09660700  -0.04000800  -0.01923900  -0.00952400  -0.00392700   0.00112200   0.00000000   0.00000000
   0.17263300  -0.07657400  -0.03752800  -0.01857800  -0.00767600   0.00219500   0.00000000   0.00000000
   0.27269200  -0.13348800  -0.06578600  -0.03286600  -0.01356000   0.00387500   0.00000000   0.00000000
   0.32191200  -0.19169200  -0.10013800  -0.05004600  -0.02077900   0.00594800   0.00000000   0.00000000
   0.21080600  -0.11202000  -0.05310100  -0.02725300  -0.01113300   0.00317400   0.00000000   0.00000000
   0.04120700   0.26640600   0.19450000   0.11008100   0.04623500  -0.01325200   0.00000000   0.00000000
  -0.00325700   0.55871200   0.58403100   0.33986300   0.14717300  -0.04237600   0.00000000   0.00000000
   0.00173100   0.31819700   0.25541700   0.17265600   0.07432300  -0.02141100   0.00000000   0.00000000
  -0.00094800   0.02287300  -0.82185800  -0.90417200  -0.44429000   0.13055300   0.00000000   0.00000000
   0.00053800   0.00042400  -0.50495600  -0.56776800  -0.29972600   0.08904100   0.00000000   0.00000000
  -0.00026100  -0.00105400  -0.06006800   0.93569000   0.74557800  -0.23553600   0.00000000   0.00000000
   0.00014400   0.00057000   0.01248900   0.57766400   0.63263800  -0.22001200   0.00000000   0.00000000
  -0.00005800  -0.00025400  -0.00480100   0.02545800  -0.75389100   0.34027500   0.00000000   0.00000000
   0.00002300   0.00010800   0.00194000  -0.00074800  -0.68831500   0.44486100   1.00000000   0.00000000
  -0.00000500  -0.00002500  -0.00043700   0.00014700  -0.03606500  -0.60763400   0.00000000   0.00000000
   0.00000200   0.00001000   0.00018400  -0.00009800   0.01401600  -0.59797800   0.00000000   1.00000000
   18    7
      89387.68000000
      21166.72300000
       6873.25930000
       2628.13270000
       1114.90790000
        508.50757000
        244.01522000
        121.32689000
         60.91324700
         31.49017400
         16.34639800
          8.05342780
          3.93635810
          1.65615640
          0.75627290
          0.30882780
          0.08960470
          0.03440710
   0.00159200  -0.00081500  -0.00039800   0.00014900   0.00000000   0.00000000   0.00000000
   0.00454500  -0.00234400  -0.00114700   0.00042900   0.00000000   0.00000000   0.00000000
   0.01468700  -0.00765000  -0.00375400   0.00140400   0.00000000   0.00000000   0.00000000
   0.04246900  -0.02250600  -0.01107300   0.00415500   0.00000000   0.00000000   0.00000000
   0.11309900  -0.06180200  -0.03068900   0.01149800   0.00000000   0.00000000   0.00000000
   0.24223100  -0.13863100  -0.06944100   0.02619000   0.00000000   0.00000000   0.00000000
   0.36728800  -0.22119300  -0.11285300   0.04239300   0.00000000   0.00000000   0.00000000
   0.30778100  -0.13513200  -0.05877900   0.02189200   0.00000000   0.00000000   0.00000000
   0.10092200   0.26963900   0.20502000  -0.08519800   0.00000000   0.00000000   0.00000000
   0.00452900   0.56737500   0.46952400  -0.19302700   0.00000000   0.00000000   0.00000000
   0.00138200   0.28169800   0.03751800   0.00332900   0.00000000   0.00000000   0.00000000
  -0.00079200   0.03161400  -0.64513500   0.38301500   0.00000000   0.00000000   0.00000000
   0.00031500   0.00033200  -0.47904100   0.27544300   0.00000000   0.00000000   0.00000000
  -0.00015500   0.00024100  -0.05595900  -0.42917700   0.00000000   0.00000000   0.00000000
   0.00008100  -0.00012200   0.00375800  -0.61350200   0.00000000   0.00000000   0.00000000
  -0.00002900   0.00003000  -0.00135600  -0.18644100   1.00000000   0.00000000   0.00000000
   0.00001000  -0.00001200   0.00039100  -0.00330800   0.00000000   1.00000000   0.00000000
  -0.00000400   0.00000400  -0.00014400  -0.00098400   0.00000000   0.00000000   1.00000000
   14    5
       3733.69050000
       1129.27430000
        440.77439000
        194.87478000
         92.78086500
         45.98227700
         23.36842900
         11.69640200
          5.72121700
          2.71950640
          1.11922640
          0.44439150
          0.15906470
          0.05700000
   0.00129900  -0.00065300   0.00016200   0.00000000   0.00000000
   0.00844000  -0.00428400   0.00107300   0.00000000   0.00000000
   0.03924100  -0.02004600   0.00498300   0.00000000   0.00000000
   0.12889900  -0.06742200   0.01697500   0.00000000   0.00000000
   0.28893400  -0.15139400   0.03769900   0.00000000   0.00000000
   0.40084900  -0.19733500   0.04957200   0.00000000   0.00000000
   0.27725700  -0.01005700  -0.00658400   0.00000000   0.00000000
   0.07130900   0.37587700  -0.11196300   0.00000000   0.00000000
   0.00379800   0.49673500  -0.15416300   0.00000000   0.00000000
   0.00073900   0.22815000   0.03196900   0.00000000   0.00000000
  -0.00011300   0.02493400   0.35309500   0.00000000   0.00000000
   0.00006100  -0.00092000   0.47993700   0.00000000   0.00000000
  -0.00002700   0.00051400   0.32083100   1.00000000   0.00000000
   0.00000800  -0.00014800   0.06157200   0.00000000   1.00000000
    9    3
        332.54602000
        115.16694000
         48.68767700
         22.33074400
         10.56765940
          4.93672570
          2.20852950
          0.88145530
          0.35000000
   0.00279700   0.00000000   0.00000000
   0.02131100   0.00000000   0.00000000
   0.08532200   0.00000000   0.00000000
   0.21596300   0.00000000   0.00000000
   0.34298400   0.00000000   0.00000000
   0.36331600   0.00000000   0.00000000
   0.25003200   0.00000000   0.00000000
   0.08515100   1.00000000   0.00000000
   0.00634000   0.00000000   1.00000000

/Os.Raf-r.Wahlgren.22s18p14d9f.8s7p5d3f.
U. Wahlgren, Knut Faegri, University of Oslo.
OSMIUM (22s,18p,14d,9f) -> [8s,7p,5d,3f]
    76.0   3
   22    8
   36938369.00000000
    5531366.40000000
    1258787.60000000
     356538.38000000
     116310.21000000
      41984.41600000
      16371.11200000
       6786.73950000
       2956.75760000
       1341.10890000
        624.77753000
        279.22792000
        142.67343000
         72.06801200
         32.36902200
         16.97575600
          7.29750890
          3.65151890
          1.45085980
          0.66235140
          0.13426050
          0.05096180
   0.00120000  -0.00045900  -0.00021900  -0.00010800   0.00004500   0.00001300   0.00000000   0.00000000
   0.00286600  -0.00109900  -0.00052400  -0.00025900   0.00010800   0.00003100   0.00000000   0.00000000
   0.00658900  -0.00253700  -0.00121000  -0.00059900   0.00025000   0.00007100   0.00000000   0.00000000
   0.01354800  -0.00526200  -0.00251400  -0.00124400   0.00051900   0.00014800   0.00000000   0.00000000
   0.02703900  -0.01063000  -0.00508300  -0.00251700   0.00105100   0.00029900   0.00000000   0.00000000
   0.05194800  -0.02091700  -0.01006600  -0.00498600   0.00208300   0.00059200   0.00000000   0.00000000
   0.09752300  -0.04058600  -0.01955500  -0.00971300   0.00405500   0.00115200   0.00000000   0.00000000
   0.17325800  -0.07720500  -0.03791000  -0.01883300   0.00788000   0.00224100   0.00000000   0.00000000
   0.27235300  -0.13383900  -0.06607900  -0.03312000   0.01383700   0.00393200   0.00000000   0.00000000
   0.32070700  -0.19107000  -0.09997900  -0.05014200   0.02108400   0.00600300   0.00000000   0.00000000
   0.21027400  -0.11043700  -0.05205800  -0.02675600   0.01105600   0.00313400   0.00000000   0.00000000
   0.04142100   0.26640900   0.19517400   0.11084400  -0.04715600  -0.01344000   0.00000000   0.00000000
  -0.00315100   0.55790500   0.58444800   0.34171500  -0.14995900  -0.04295900   0.00000000   0.00000000
   0.00169600   0.31824900   0.25396300   0.17160000  -0.07473700  -0.02140200   0.00000000   0.00000000
  -0.00093400   0.02275700  -0.82315900  -0.91091700   0.45425200   0.13284500   0.00000000   0.00000000
   0.00053300   0.00050700  -0.50276800  -0.56540600   0.30319500   0.08977700   0.00000000   0.00000000
  -0.00026300  -0.00112100  -0.06102200   0.93726100  -0.76256600  -0.24070100   0.00000000   0.00000000
   0.00014700   0.00062000   0.01319600   0.57701500  -0.64483000  -0.22385100   0.00000000   0.00000000
  -0.00006000  -0.00027600  -0.00507700   0.02633200   0.76642300   0.34960400   0.00000000   0.00000000
   0.00002300   0.00011500   0.00201300  -0.00073000   0.69018900   0.43141900   1.00000000   0.00000000
  -0.00000500  -0.00002600  -0.00044500   0.00017000   0.03675100  -0.56966400   0.00000000   0.00000000
   0.00000200   0.00001100   0.00018500  -0.00009800  -0.01269600  -0.62951400   0.00000000   1.00000000
   18    7
      92913.91400000
      22001.50600000
       7144.38970000
       2731.92090000
       1159.03420000
        528.72272000
        253.79143000
        126.26080000
         63.50515700
         32.86181400
         17.08361400
          8.42579230
          4.13764950
          1.75792060
          0.80646290
          0.32989750
          0.09590040
          0.03640130
   0.00162700  -0.00083500  -0.00041000   0.00015600   0.00000000   0.00000000   0.00000000
   0.00460200  -0.00238000  -0.00116900   0.00044600   0.00000000   0.00000000   0.00000000
   0.01475900  -0.00770800  -0.00379900   0.00144600   0.00000000   0.00000000   0.00000000
   0.04236600  -0.02251300  -0.01112500   0.00424800   0.00000000   0.00000000   0.00000000
   0.11238000  -0.06155500  -0.03070100   0.01170600   0.00000000   0.00000000   0.00000000
   0.24047600  -0.13791900  -0.06938200   0.02663100   0.00000000   0.00000000   0.00000000
   0.36591700  -0.22069600  -0.11308600   0.04323400   0.00000000   0.00000000   0.00000000
   0.30934700  -0.13786200  -0.06061600   0.02298900   0.00000000   0.00000000   0.00000000
   0.10325800   0.26331500   0.20175800  -0.08548200   0.00000000   0.00000000   0.00000000
   0.00499300   0.56692600   0.47143100  -0.19753000   0.00000000   0.00000000   0.00000000
   0.00136800   0.28714200   0.04679400  -0.00081800   0.00000000   0.00000000   0.00000000
  -0.00079100   0.03318100  -0.64284000   0.39084000   0.00000000   0.00000000   0.00000000
   0.00031800   0.00021800  -0.48424900   0.28605300   0.00000000   0.00000000   0.00000000
  -0.00015700   0.00028100  -0.05743900  -0.43685300   0.00000000   0.00000000   0.00000000
   0.00008200  -0.00014900   0.00366000  -0.61492600   0.00000000   0.00000000   0.00000000
  -0.00002900   0.00003700  -0.00134600  -0.18308400   1.00000000   0.00000000   0.00000000
   0.00001000  -0.00001500   0.00037700  -0.00315400   0.00000000   1.00000000   0.00000000
  -0.00000400   0.00000500  -0.00013700  -0.00097400   0.00000000   0.00000000   1.00000000
   14    5
       3778.99370000
       1142.97830000
        446.08995000
        197.18691000
         93.85151900
         46.50094000
         23.61467200
         11.80821200
          5.77754380
          2.75434770
          1.16128660
          0.46412080
          0.16631040
          0.05900000
   0.00136200  -0.00069000   0.00018000   0.00000000   0.00000000
   0.00879700  -0.00449900   0.00118600   0.00000000   0.00000000
   0.04069700  -0.02096100   0.00549800   0.00000000   0.00000000
   0.13286100  -0.07005800   0.01857700   0.00000000   0.00000000
   0.29485500  -0.15565700   0.04091100   0.00000000   0.00000000
   0.40215000  -0.19795800   0.05218700   0.00000000   0.00000000
   0.26957200   0.00308000  -0.01097900   0.00000000   0.00000000
   0.06624200   0.39160700  -0.12408100   0.00000000   0.00000000
   0.00326000   0.49288700  -0.16028400   0.00000000   0.00000000
   0.00068700   0.21056500   0.04920600   0.00000000   0.00000000
  -0.00012200   0.02103100   0.37736600   0.00000000   0.00000000
   0.00005700  -0.00027800   0.47776400   0.00000000   0.00000000
  -0.00002700   0.00033700   0.29547200   1.00000000   0.00000000
   0.00000800  -0.00006400   0.04968600   0.00000000   1.00000000
    9    3
        354.42137000
        122.88051000
         52.07603400
         23.95496200
         11.39041000
          5.35790290
          2.42043540
          0.97657840
          0.39690000
   0.00267700   0.00000000   0.00000000
   0.02051100   0.00000000   0.00000000
   0.08300100   0.00000000   0.00000000
   0.21271400   0.00000000   0.00000000
   0.34249900   0.00000000   0.00000000
   0.36571800   0.00000000   0.00000000
   0.24950100   0.00000000   0.00000000
   0.08171600   1.00000000   0.00000000
   0.00558600   0.00000000   1.00000000

/Ir.Raf-r.Wahlgren.22s18p14d9f.8s7p5d3f.
U. Wahlgren, Knut Faegri, University of Oslo.
IRIDIUM (22s,18p,14d,9f) -> [8s,7p,5d,3f]
    77.0   3
   22    8
   38103770.00000000
    5705873.40000000
    1298500.30000000
     367786.71000000
     119979.75000000
      43309.03400000
      16887.62000000
       7000.85070000
       3050.03210000
       1383.41920000
        644.56747000
        288.64708000
        147.46239000
         74.47779400
         33.47200000
         17.57455400
          7.57326580
          3.81545290
          1.54271000
          0.70345000
          0.14188000
          0.05331000
   0.00124600  -0.00047900  -0.00022900  -0.00011300   0.00004800   0.00001300   0.00000000   0.00000000
   0.00296300  -0.00114200  -0.00054500  -0.00027100   0.00011400   0.00003200   0.00000000   0.00000000
   0.00678500  -0.00262500  -0.00125400  -0.00062300   0.00026300   0.00007400   0.00000000   0.00000000
   0.01389200  -0.00542100  -0.00259500  -0.00128800   0.00054400   0.00015300   0.00000000   0.00000000
   0.02760200  -0.01090400  -0.00522400  -0.00259500   0.00109600   0.00030900   0.00000000   0.00000000
   0.05275500  -0.02134500  -0.01029100  -0.00511400   0.00216200   0.00060900   0.00000000   0.00000000
   0.09848600  -0.04119000  -0.01988400  -0.00990900   0.00418600   0.00117800   0.00000000   0.00000000
   0.17394800  -0.07787400  -0.03831200  -0.01909900   0.00808500   0.00227800   0.00000000   0.00000000
   0.27207300  -0.13422700  -0.06638800  -0.03338400   0.01411100   0.00397200   0.00000000   0.00000000
   0.31947300  -0.19044500  -0.09981300  -0.05023400   0.02137400   0.00602800   0.00000000   0.00000000
   0.20961200  -0.10866000  -0.05088800  -0.02619100   0.01093700   0.00306900   0.00000000   0.00000000
   0.04156800   0.26686900   0.19621100   0.11182900  -0.04815000  -0.01359400   0.00000000   0.00000000
  -0.00304600   0.55705500   0.58495700   0.34362100  -0.15268800  -0.04334200   0.00000000   0.00000000
   0.00166000   0.31789700   0.25170500   0.17003500  -0.07485900  -0.02122700   0.00000000   0.00000000
  -0.00091700   0.02256300  -0.82486400  -0.91845300   0.46446400   0.13465200   0.00000000   0.00000000
   0.00052700   0.00060000  -0.50004300  -0.56181700   0.30573200   0.08985500   0.00000000   0.00000000
  -0.00026300  -0.00119100  -0.06184900   0.94009900  -0.78068700  -0.24521200   0.00000000   0.00000000
   0.00015000   0.00067300   0.01390100   0.57492400  -0.65449800  -0.22572800   0.00000000   0.00000000
  -0.00006100  -0.00029700  -0.00533600   0.02715900   0.78065900   0.35759700   0.00000000   0.00000000
   0.00002300   0.00012100   0.00206900  -0.00072800   0.69041000   0.41620600   1.00000000   0.00000000
  -0.00000500  -0.00002700  -0.00044900   0.00019800   0.03664700  -0.53904400   0.00000000   0.00000000
   0.00000200   0.00001100   0.00018400  -0.00009800  -0.01137800  -0.65290800   0.00000000   1.00000000
   18    7
      96509.59900000
      22852.71300000
       7420.84760000
       2837.74720000
       1204.02790000
        549.33635000
        263.76229000
        131.29484000
         66.15117400
         34.26141600
         17.83543600
          8.80635040
          4.34454330
          1.86303290
          0.85773470
          0.35157110
          0.10134360
          0.03807970
   0.00166400  -0.00085600   0.00042200  -0.00016300   0.00000000   0.00000000   0.00000000
   0.00466100  -0.00241700   0.00119300  -0.00046200   0.00000000   0.00000000   0.00000000
   0.01484100  -0.00777200   0.00384700  -0.00148800   0.00000000   0.00000000   0.00000000
   0.04229200  -0.02253400   0.01118500  -0.00434000   0.00000000   0.00000000   0.00000000
   0.11173000  -0.06134300   0.03073000  -0.01190600   0.00000000   0.00000000   0.00000000
   0.23882400  -0.13725800   0.06934700  -0.02704800   0.00000000   0.00000000   0.00000000
   0.36456700  -0.22019900   0.11331600  -0.04402500   0.00000000   0.00000000   0.00000000
   0.31077300  -0.14038200   0.06234400  -0.02403600   0.00000000   0.00000000   0.00000000
   0.10551000   0.25731200  -0.19870000   0.08570300   0.00000000   0.00000000   0.00000000
   0.00546000   0.56639200  -0.47327800   0.20180200   0.00000000   0.00000000   0.00000000
   0.00135200   0.29230800  -0.05555200   0.00486000   0.00000000   0.00000000   0.00000000
  -0.00079000   0.03470500   0.64075300  -0.39834400   0.00000000   0.00000000   0.00000000
   0.00032100   0.00010400   0.48901500  -0.29603800   0.00000000   0.00000000   0.00000000
  -0.00015900   0.00031900   0.05883400   0.44423800   0.00000000   0.00000000   0.00000000
   0.00008200  -0.00017400  -0.00353500   0.61601300   0.00000000   0.00000000   0.00000000
  -0.00002900   0.00004200   0.00133100   0.18025500   1.00000000   0.00000000   0.00000000
   0.00001000  -0.00001700  -0.00036000   0.00308600   0.00000000   1.00000000   0.00000000
  -0.00000400   0.00000600   0.00013000   0.00090200   0.00000000   0.00000000   1.00000000
   14    5
       3841.54860000
       1161.91430000
        453.46152000
        200.42501000
         95.37445400
         47.25122400
         23.98238800
         11.98494700
          5.86691420
          2.80022730
          1.20784960
          0.48763310
          0.17607090
          0.06000000
   0.00141500  -0.00072200   0.00019800   0.00000000   0.00000000
   0.00908800  -0.00468300   0.00129000   0.00000000   0.00000000
   0.04184900  -0.02172600   0.00596500   0.00000000   0.00000000
   0.13594300  -0.07224800   0.02002300   0.00000000   0.00000000
   0.29938900  -0.15922900   0.04383400   0.00000000   0.00000000
   0.40295400  -0.19850900   0.05449600   0.00000000   0.00000000
   0.26358400   0.01381200  -0.01493400   0.00000000   0.00000000
   0.06246800   0.40432000  -0.13527500   0.00000000   0.00000000
   0.00288400   0.48958000  -0.16514200   0.00000000   0.00000000
   0.00064100   0.19591800   0.06607900   0.00000000   0.00000000
  -0.00013000   0.01786400   0.39563100   0.00000000   0.00000000
   0.00005300   0.00030300   0.47138400   0.00000000   0.00000000
  -0.00002700   0.00021600   0.27630300   1.00000000   0.00000000
   0.00000700   0.00000400   0.04176300   0.00000000   1.00000000
    9    3
        376.30209000
        130.60175000
         55.46611900
         25.58154200
         12.21491000
          5.78090720
          2.63387860
          1.07234830
          0.44000000
   0.00257600   0.00000000   0.00000000
   0.01983400   0.00000000   0.00000000
   0.08103300   0.00000000   0.00000000
   0.20993600   0.00000000   0.00000000
   0.34213200   0.00000000   0.00000000
   0.36785400   0.00000000   0.00000000
   0.24880200   0.00000000   0.00000000
   0.07871800   1.00000000   0.00000000
   0.00498600   0.00000000   1.00000000

/Pt.Raf-r.Wahlgren.22s18p14d9f.8s7p5d3f.
U. Wahlgren, Knut Faegri, University of Oslo.
PLATINUM (22s,18p,14d,9f) -> [8s,7p,5d,3f]
    78.0   3
   22    8
   39153030.00000000
    5863120.10000000
    1334304.40000000
     377931.06000000
     123287.67000000
      44501.41400000
      17351.81500000
       7193.09600000
       3133.77240000
       1421.43060000
        662.32698000
        296.70361000
        151.63278000
         76.62601200
         34.49011000
         18.11404000
          7.80619200
          3.95609900
          1.60825750
          0.71201000
          0.12891620
          0.04863460
   0.00129800   0.00050100  -0.00024000  -0.00011900   0.00005100  -0.00001400   0.00000000   0.00000000
   0.00307100   0.00118900  -0.00056900  -0.00028300   0.00012100  -0.00003400   0.00000000   0.00000000
   0.00700600   0.00272400  -0.00130300  -0.00064900   0.00027700  -0.00007700   0.00000000   0.00000000
   0.01428000   0.00559900  -0.00268500  -0.00133700   0.00057100  -0.00015800   0.00000000   0.00000000
   0.02825200   0.01121500  -0.00538200  -0.00268300   0.00114600  -0.00031700   0.00000000   0.00000000
   0.05372200   0.02184600  -0.01055100  -0.00526100   0.00224800  -0.00062300   0.00000000   0.00000000
   0.09973600   0.04192600  -0.02027700  -0.01013900   0.00433000  -0.00120000   0.00000000   0.00000000
   0.17508600   0.07878700  -0.03883600  -0.01942500   0.00831200  -0.00230400   0.00000000   0.00000000
   0.27226900   0.13490700  -0.06684200  -0.03372800   0.01441700  -0.00400000   0.00000000   0.00000000
   0.31816100   0.19000700  -0.09976700  -0.05037400   0.02165700  -0.00599700   0.00000000   0.00000000
   0.20808900   0.10555100  -0.04889700  -0.02522500   0.01066600  -0.00298300   0.00000000   0.00000000
   0.04119700  -0.27089000   0.20016700   0.11460800  -0.05000900   0.01401200   0.00000000   0.00000000
  -0.00300500  -0.55565200   0.58637600   0.34599500  -0.15534300   0.04314300   0.00000000   0.00000000
   0.00163600  -0.31474000   0.24378100   0.16516400  -0.07380700   0.02112500   0.00000000   0.00000000
  -0.00090300  -0.02173200  -0.82997900  -0.93262100   0.47906500  -0.13807300   0.00000000   0.00000000
   0.00051800  -0.00081000  -0.49359600  -0.54829400   0.30056900  -0.08479400   0.00000000   0.00000000
  -0.00025900   0.00129300  -0.06118700   0.95195300  -0.80505900   0.24528400   0.00000000   0.00000000
   0.00014700  -0.00072700   0.01408000   0.56262400  -0.65652200   0.23196400   0.00000000   0.00000000
  -0.00005700   0.00030400  -0.00514700   0.02693200   0.84336000  -0.40099800   0.00000000   0.00000000
   0.00002000  -0.00011500   0.00187400  -0.00088300   0.65262700  -0.36023700   1.00000000   0.00000000
  -0.00000400   0.00002500  -0.00039400   0.00025000   0.02570400   0.64496400   0.00000000   0.00000000
   0.00000200  -0.00001100   0.00017000  -0.00011800  -0.00771500   0.53481600   0.00000000   1.00000000
   18    7
      99621.50800000
      23589.61800000
       7660.19900000
       2929.35380000
       1242.96530000
        567.16252000
        272.37537000
        135.62884000
         68.39620000
         35.45437900
         18.47166100
          9.12888400
          4.52285500
          1.94793900
          0.89223600
          0.36185900
          0.09208300
          0.03473900
   0.00171000  -0.00088300   0.00043700   0.00017100   0.00000000   0.00000000   0.00000000
   0.00475300  -0.00247200   0.00122500   0.00048100   0.00000000   0.00000000   0.00000000
   0.01503200  -0.00789300   0.00392400   0.00154000   0.00000000   0.00000000   0.00000000
   0.04254100  -0.02273000   0.01133200   0.00446200   0.00000000   0.00000000   0.00000000
   0.11188200  -0.06158700   0.03098900   0.01218300   0.00000000   0.00000000   0.00000000
   0.23850700  -0.13740500   0.06972700   0.02760200   0.00000000   0.00000000   0.00000000
[...]
   0.05743200  -0.03131600   0.01605200  -0.00699600   0.00206400   0.00000000   0.00000000
   0.14427900  -0.08156900   0.04214600  -0.01832700   0.00543700   0.00000000   0.00000000
   0.28468400  -0.16829200   0.08813000  -0.03869100   0.01139000   0.00000000   0.00000000
   0.37752900  -0.23012900   0.12099800  -0.05252800   0.01571200   0.00000000   0.00000000
   0.25400100  -0.04083700  -0.00046900   0.00160800  -0.00102600   0.00000000   0.00000000
   0.05767300   0.43394200  -0.35491200   0.17484000  -0.05156400   0.00000000   0.00000000
  -0.00083800   0.52482200  -0.43043800   0.20065600  -0.06258200   0.00000000   0.00000000
   0.00131100   0.15414600   0.28326400  -0.19580000   0.06762400   0.00000000   0.00000000
  -0.00084900   0.00399600   0.70820600  -0.56490400   0.17445700   0.00000000   0.00000000
   0.00039600   0.00194400   0.24820700   0.01427500  -0.00215300   0.00000000   0.00000000
  -0.00016400  -0.00079700   0.01350100   0.74473300  -0.36172200   0.00000000   0.00000000
   0.00006200   0.00022100   0.00005800   0.39916500  -0.10001200   1.00000000   0.00000000
  -0.00001600  -0.00006200   0.00000700   0.02211900   0.63334200   0.00000000   0.00000000
   0.00000500   0.00002200  -0.00002300  -0.00242200   0.50790200   0.00000000   1.00000000
   14    5
       5264.58650000
       1593.44470000
        622.76584000
        276.26481000
        132.23345000
         66.08610000
         33.98087200
         17.35904200
          8.76035310
          4.37831090
          2.06855500
          0.92865580
          0.37419440
          0.12500000
   0.00127500  -0.00068300   0.00025200   0.00000000   0.00000000
   0.00772900  -0.00417700   0.00155000   0.00000000   0.00000000
   0.03510800  -0.01911000   0.00707600   0.00000000   0.00000000
   0.11594700  -0.06452200   0.02408500   0.00000000   0.00000000
   0.26846700  -0.15029800   0.05591100   0.00000000   0.00000000
   0.39353000  -0.20960000   0.07772800   0.00000000   0.00000000
   0.29925600  -0.04590000   0.00358000   0.00000000   0.00000000
   0.09043900   0.34807900  -0.16642600   0.00000000   0.00000000
   0.00614600   0.51181300  -0.24346600   0.00000000   0.00000000
   0.00080800   0.24020000   0.03874100   0.00000000   0.00000000
  -0.00022300   0.02887000   0.46091800   0.00000000   0.00000000
   0.00010100   0.00007600   0.49342400   0.00000000   0.00000000
  -0.00003600   0.00005600   0.16955000   1.00000000   0.00000000
   0.00001000  -0.00003400   0.00686500   0.00000000   1.00000000
    9    3
        549.92141000
        192.06420000
         82.47452900
         38.61958900
         18.88031300
          9.24599510
          4.42086310
          1.92710610
          0.64200000
   0.00203100   0.00000000   0.00000000
   0.01593000   0.00000000   0.00000000
   0.06880600   0.00000000   0.00000000
   0.18993900   0.00000000   0.00000000
   0.33396300   0.00000000   0.00000000
   0.37884900   0.00000000   0.00000000
   0.25299100   0.00000000   0.00000000
   0.07098600   1.00000000   0.00000000
   0.00229300   0.00000000   1.00000000

/Th.Raf-r.Wahlgren.24s19p14d11f.9s8p7d5f.
U. Wahlgren, Knut Faegri, University of Oslo.
THORIUM (24s,19p,14d,11f) -> [9s,8p,7d,5f]
    90.0   3
   24    9
   56858770.00000000
    8514809.00000000
    1937898.60000000
     548918.60000000
     179072.48000000
      64639.34600000
      25204.19300000
      10448.15500000
       4552.02300000
       2065.39490000
        965.28516000
        447.97819000
        225.38119000
        112.95680000
         51.10970200
         27.41844100
         12.36275800
          6.74323000
          3.09640870
          1.66823770
          0.57058450
          0.27683920
          0.06720580
          0.02888130
   0.00206000   0.00084500   0.00041100  -0.00021200   0.00010400  -0.00004500   0.00001400   0.00000000   0.00000000
   0.00458200   0.00188400   0.00091800  -0.00047400   0.00023100  -0.00010100   0.00003100   0.00000000   0.00000000
   0.00994500   0.00410700   0.00200200  -0.00103400   0.00050400  -0.00022100   0.00006800   0.00000000   0.00000000
   0.01915700   0.00797900   0.00389700  -0.00201400   0.00098300  -0.00043000   0.00013100   0.00000000   0.00000000
   0.03587300   0.01513800   0.00740300  -0.00382800   0.00186800  -0.00081800   0.00025000   0.00000000   0.00000000
   0.06399600   0.02763600   0.01359600  -0.00703600   0.00343500  -0.00150500   0.00046000   0.00000000   0.00000000
   0.11108800   0.04964100   0.02448100  -0.01269300   0.00619300  -0.00271300   0.00082900   0.00000000   0.00000000
   0.18169900   0.08626600   0.04329900  -0.02249900   0.01100600  -0.00482400   0.00147300   0.00000000   0.00000000
   0.26612000   0.13779700   0.06947000  -0.03629400   0.01771700  -0.00776600   0.00237400   0.00000000   0.00000000
   0.30164800   0.17823700   0.09450900  -0.04958600   0.02440300  -0.01070200   0.00326800   0.00000000   0.00000000
   0.20243300   0.08862500   0.03714800  -0.01895700   0.00892000  -0.00390100   0.00119500   0.00000000   0.00000000
   0.04604000  -0.26054800  -0.19946100   0.11799900  -0.05887200   0.02600700  -0.00796500   0.00000000   0.00000000
  -0.00090100  -0.55165800  -0.58590700   0.36428600  -0.18876700   0.08369100  -0.02560200   0.00000000   0.00000000
   0.00099000  -0.31713600  -0.23473400   0.15319300  -0.07632900   0.03397900  -0.01043900   0.00000000   0.00000000
  -0.00060100  -0.02307300   0.82507100  -0.97483100   0.58497600  -0.27008500   0.08331200   0.00000000   0.00000000
   0.00037600  -0.00078200   0.47859600  -0.56188500   0.37035000  -0.17395700   0.05363600   0.00000000   0.00000000
  -0.00022900   0.00170800   0.08388700   0.92629800  -0.99319800   0.52246500  -0.16427500   0.00000000   0.00000000
   0.00016000  -0.00124800  -0.02931700   0.60245000  -0.80653800   0.48001900  -0.15532600   0.00000000   0.00000000
  -0.00008600   0.00072400   0.01491500   0.04980200   0.86806700  -0.77713500   0.26801200   0.00000000   0.00000000
   0.00004200  -0.00038200  -0.00755500  -0.00471700   0.74871900  -0.78148600   0.28522200   0.00000000   0.00000000
  -0.00001400   0.00013100   0.00255000   0.00127600   0.06033000   0.83777400  -0.42246900   0.00000000   0.00000000
   0.00000700  -0.00006300  -0.00122400  -0.00063300  -0.01530700   0.61754600  -0.45141500   1.00000000   0.00000000
  -0.00000200   0.00001700   0.00033600   0.00015400   0.00354700   0.02803800   0.54190100   0.00000000   0.00000000
   0.00000100  -0.00000700  -0.00013900  -0.00006400  -0.00143400  -0.00703900   0.68950300   0.00000000   1.00000000
   19    8
     117810.65000000
      27899.29200000
       9059.10800000
       3463.70290000
       1469.55220000
        670.40272000
        322.07651000
        160.32475000
         79.73142700
         41.46897800
         21.27859300
         10.88653000
          5.60008980
          2.68721240
          1.30387600
          0.46984990
          0.18455620
          0.04480390
          0.01925420
   0.00281700  -0.00149600  -0.00077600   0.00036500   0.00014500   0.00000000   0.00000000   0.00000000
   0.00734600  -0.00393700  -0.00204800   0.00096400   0.00038200   0.00000000   0.00000000   0.00000000
   0.02187800  -0.01187100  -0.00619300   0.00291300   0.00115500   0.00000000   0.00000000   0.00000000
   0.05777100  -0.03194400  -0.01674700   0.00790800   0.00312800   0.00000000   0.00000000   0.00000000
   0.14160200  -0.08102100  -0.04283600   0.02019400   0.00802500   0.00000000   0.00000000   0.00000000
   0.27692500  -0.16530300  -0.08844200   0.04206600   0.01662200   0.00000000   0.00000000   0.00000000
   0.37329800  -0.22901500  -0.12319200   0.05802400   0.02321000   0.00000000   0.00000000   0.00000000
   0.26267600  -0.05570300  -0.00814800   0.00209700   0.00010400   0.00000000   0.00000000   0.00000000
   0.06534300   0.40836900   0.34338700  -0.18471700  -0.07378600   0.00000000   0.00000000   0.00000000
  -0.00050500   0.53222900   0.45563800  -0.23404100  -0.09765000   0.00000000   0.00000000   0.00000000
   0.00158000   0.17487000  -0.23479900   0.18751600   0.08912900   0.00000000   0.00000000   0.00000000
  -0.00105500   0.00724800  -0.72137400   0.64334500   0.27846400   0.00000000   0.00000000   0.00000000
   0.00054500   0.00174100  -0.27391400   0.01093700  -0.00008200   0.00000000   0.00000000   0.00000000
  -0.00025800  -0.00086000  -0.01826000  -0.78394800  -0.56486400   0.00000000   0.00000000   0.00000000
   0.00011500   0.00028300   0.00062000  -0.38694500  -0.11530700   0.00000000   0.00000000   0.00000000
  -0.00003800  -0.00009800  -0.00018000  -0.02384700   0.78900100   0.00000000   0.00000000   0.00000000
   0.00001500   0.00004000   0.00009200   0.00297400   0.38179600   1.00000000   0.00000000   0.00000000
  -0.00000500  -0.00001400  -0.00003700  -0.00078400   0.01437000   0.00000000   1.00000000   0.00000000
   0.00000300   0.00000700   0.00001600   0.00037400  -0.00157000   0.00000000   0.00000000   1.00000000
   14    7
       4009.27720000
       1212.49960000
        472.01871000
        207.70909000
         97.90942800
         48.10609400
         23.59347600
         11.55907800
          5.62743060
          2.60035190
          1.13959220
          0.36767680
          0.11384180
          0.03500000
   0.00292600  -0.00163100   0.00070200  -0.00021000   0.00000000   0.00000000   0.00000000
   0.01763200  -0.00988100   0.00424100  -0.00127600   0.00000000   0.00000000   0.00000000
   0.07485900  -0.04278200   0.01852800  -0.00554400   0.00000000   0.00000000   0.00000000
   0.21675000  -0.12567500   0.05429800  -0.01636900   0.00000000   0.00000000   0.00000000
   0.39190500  -0.22401400   0.09733700  -0.02901600   0.00000000   0.00000000   0.00000000
   0.37008100  -0.12825500   0.04289100  -0.01287200   0.00000000   0.00000000   0.00000000
   0.13337600   0.30507700  -0.17861600   0.05732400   0.00000000   0.00000000   0.00000000
   0.00900300   0.55785500  -0.31922100   0.09624400   0.00000000   0.00000000   0.00000000
   0.00136400   0.25946900   0.06643300  -0.02732500   0.00000000   0.00000000   0.00000000
  -0.00052500   0.02349600   0.60066400  -0.24947000   0.00000000   0.00000000   0.00000000
   0.00020600  -0.00004600   0.43694900  -0.08048900   1.00000000   0.00000000   0.00000000
  -0.00006300  -0.00011000   0.04918300   0.56728600   0.00000000   0.00000000   0.00000000
   0.00002400   0.00001200  -0.00755300   0.56753000   0.00000000   1.00000000   0.00000000
  -0.00000800  -0.00000900   0.00187300   0.04329600   0.00000000   0.00000000   1.00000000
   11    5
        632.11882000
        220.96126000
         94.94866400
         44.54444500
         21.78139100
         10.70561300
          5.12525720
          2.19847750
          0.87647160
          0.30481270
          0.10000000
   0.00240100  -0.00055100   0.00000000   0.00000000   0.00000000
   0.01851900  -0.00432000   0.00000000   0.00000000   0.00000000
   0.07896600  -0.01825800   0.00000000   0.00000000   0.00000000
   0.21374300  -0.05000300   0.00000000   0.00000000   0.00000000
   0.36090100  -0.07825700   0.00000000   0.00000000   0.00000000
   0.37794600  -0.06738700   0.00000000   0.00000000   0.00000000
   0.20690300   0.06594800   0.00000000   0.00000000   0.00000000
   0.03576600   0.27524900   0.00000000   0.00000000   0.00000000
  -0.00120500   0.41586000   1.00000000   0.00000000   0.00000000
   0.00061900   0.42706400   0.00000000   1.00000000   0.00000000
  -0.00017800   0.20299300   0.00000000   0.00000000   1.00000000

/U.Raf-r.Wahlgren.24s19p14d11f.9s8p7d5f.
U. Wahlgren, Knut Faegri, University of Oslo.
URANIUM (24s,19p,14d,11f) -> [9s,8p,7d,5f]
    92.0   3
   24    9
   20937546.00000000
    4399173.90000000
    1188162.80000000
     375430.04000000
     132390.27000000
      50702.25500000
      20722.02900000
       8928.22740000
       4018.32940000
       1874.66620000
        896.00546000
        413.80968000
        214.61136000
        110.58599000
         52.14083800
         27.90551900
         12.81071800
          7.04761350
          2.92559570
          1.55685980
          0.67038720
          0.32004850
          0.06268010
          0.02675510
  -0.00401000   0.00166300  -0.00081200  -0.00042100   0.00020800   0.00009200   0.00002700   0.00000000   0.00000000
  -0.00597000   0.00248700  -0.00121500  -0.00063100   0.00031200   0.00013800   0.00004100   0.00000000   0.00000000
  -0.01404900   0.00587900  -0.00287400  -0.00149200   0.00073800   0.00032600   0.00009600   0.00000000   0.00000000
  -0.02393700   0.01012800  -0.00496400  -0.00257900   0.00127600   0.00056400   0.00016600   0.00000000   0.00000000
  -0.04485800   0.01924400  -0.00944500  -0.00491000   0.00242900   0.00107300   0.00031600   0.00000000   0.00000000
  -0.07520300   0.03317100  -0.01639600  -0.00853100   0.00422700   0.00186800   0.00055000   0.00000000   0.00000000
  -0.12777500   0.05837300  -0.02892000  -0.01508200   0.00745900   0.00329600   0.00097100   0.00000000   0.00000000
  -0.19749000   0.09677100  -0.04891300  -0.02556200   0.01270400   0.00561900   0.00165500   0.00000000   0.00000000
  -0.27427100   0.14583800  -0.07393700  -0.03889000   0.01920600   0.00848500   0.00250000   0.00000000   0.00000000
  -0.28226200   0.17109000  -0.09143900  -0.04818400   0.02420300   0.01073000   0.00316000   0.00000000   0.00000000
  -0.16888000   0.03552000  -0.00312700  -0.00026700  -0.00072400  -0.00040300  -0.00011900   0.00000000   0.00000000
  -0.03020900  -0.33994900   0.27188500   0.16346300  -0.08227000  -0.03653200  -0.01077200   0.00000000   0.00000000
   0.00087500  -0.51696200   0.57807400   0.36528900  -0.19533500  -0.08790200  -0.02596200   0.00000000   0.00000000
  -0.00033600  -0.26141400   0.12312400   0.07274200  -0.02861400  -0.01183300  -0.00343800   0.00000000   0.00000000
   0.00008400  -0.01111900  -0.85205900  -1.04064100   0.62989900   0.29249900   0.08681800   0.00000000   0.00000000
   0.00001700  -0.00450300  -0.43233100  -0.46363700   0.32866000   0.16032300   0.04807000   0.00000000   0.00000000
  -0.00003700   0.00366400  -0.06758800   0.97697500  -1.13979400  -0.62365100  -0.19043200   0.00000000   0.00000000
   0.00002500  -0.00233500   0.02141600   0.54989900  -0.63507800  -0.36384600  -0.11201700   0.00000000   0.00000000
  -0.00001400   0.00125000  -0.01053200   0.04876900   1.13167100   1.06649400   0.35632900   0.00000000   0.00000000
   0.00001000  -0.00080700   0.00678900  -0.01338000   0.45127500   0.50232800   0.18299600   0.00000000   0.00000000
  -0.00000400   0.00033700  -0.00282200   0.00477900   0.04193800  -0.79590000  -0.37768200   0.00000000   0.00000000
   0.00000100  -0.00012200   0.00102300  -0.00172400  -0.00810500  -0.69741600  -0.46620800   1.00000000   0.00000000
   0.00000000   0.00002600  -0.00022000   0.00035200   0.00180400  -0.03227400   0.66763600   0.00000000   0.00000000
   0.00000000  -0.00001200   0.00009900  -0.00015800  -0.00081000   0.01035600   0.54154600   0.00000000   1.00000000
   19    8
     120600.79000000
      28560.60100000
       9273.75610000
       3545.66330000
       1504.29020000
        686.21916000
        329.71380000
        164.16782000
         81.52102200
         42.33085000
         21.56705100
         11.09078200
          5.65903550
          2.79097670
          1.35856240
          0.67772390
          0.26520570
          0.06268010
          0.02675510
   0.00305800  -0.00163100   0.00085200  -0.00040700   0.00016200   0.00000000   0.00000000   0.00000000
   0.00789400  -0.00425100   0.00222600  -0.00106600   0.00042400   0.00000000   0.00000000   0.00000000
   0.02328600  -0.01270000   0.00667000  -0.00319300   0.00126900   0.00000000   0.00000000   0.00000000
   0.06077800  -0.03378900   0.01784300  -0.00856600   0.00340900   0.00000000   0.00000000   0.00000000
   0.14717000  -0.08471300   0.04509900  -0.02164100   0.00860000   0.00000000   0.00000000   0.00000000
   0.28334200  -0.17000400   0.09166200  -0.04430800   0.01767300   0.00000000   0.00000000   0.00000000
   0.37325800  -0.22866900   0.12344200  -0.05921400   0.02347800   0.00000000   0.00000000   0.00000000
   0.25337100  -0.03785200  -0.00408700   0.00455700  -0.00187100   0.00000000   0.00000000   0.00000000
   0.05953800   0.43219900  -0.36889000   0.20163200  -0.08290000   0.00000000   0.00000000   0.00000000
  -0.00090400   0.52059900  -0.43866700   0.22936100  -0.09193100   0.00000000   0.00000000   0.00000000
   0.00153000   0.15715000   0.29158500  -0.23825700   0.10346700   0.00000000   0.00000000   0.00000000
  -0.00105700   0.00372700   0.72027100  -0.65942800   0.30710400   0.00000000   0.00000000   0.00000000
   0.00059000   0.00226700   0.23597700   0.07276100  -0.08405600   0.00000000   0.00000000   0.00000000
  -0.00032100  -0.00126300   0.01147900   0.80364100  -0.51617500   0.00000000   0.00000000   0.00000000
   0.00018000   0.00057800   0.00023300   0.32916200  -0.22276300   0.00000000   0.00000000   0.00000000
  -0.00007800  -0.00025400  -0.00001100   0.02121300   0.64440400   0.00000000   0.00000000   0.00000000
   0.00002100   0.00006900  -0.00003300   0.00194200   0.60481400   1.00000000   0.00000000   0.00000000
  -0.00000700  -0.00002100   0.00001500  -0.00050800   0.04854000   0.00000000   1.00000000   0.00000000
   0.00000300   0.00001000  -0.00000600   0.00019600  -0.00973300   0.00000000   0.00000000   1.00000000
   14    7
       4232.02980000
       1279.99370000
        498.41509000
        219.43488000
        103.52884000
         50.93162500
         25.03106700
         12.30978900
          6.01671700
          2.81003180
          1.23653050
          0.39437500
          0.12091640
          0.04000000
   0.00298100  -0.00167900  -0.00074100  -0.00022000   0.00000000   0.00000000   0.00000000
   0.01773300  -0.01004500  -0.00442200  -0.00132100   0.00000000   0.00000000   0.00000000
   0.07486600  -0.04324600  -0.01920400  -0.00569600   0.00000000   0.00000000   0.00000000
   0.21636000  -0.12678000  -0.05619900  -0.01683700   0.00000000   0.00000000   0.00000000
   0.39135800  -0.22604400  -0.10067400  -0.02970100   0.00000000   0.00000000   0.00000000
   0.37003400  -0.12914600  -0.04399600  -0.01326400   0.00000000   0.00000000   0.00000000
   0.13397400   0.30728100   0.18651100   0.06008400   0.00000000   0.00000000   0.00000000
   0.00904200   0.56005400   0.33008800   0.09780400   0.00000000   0.00000000   0.00000000
   0.00135500   0.25504200  -0.08084900  -0.03075700   0.00000000   0.00000000   0.00000000
  -0.00054800   0.02188900  -0.61337300  -0.26035500   0.00000000   0.00000000   0.00000000
   0.00020200   0.00021200  -0.41975300  -0.05313000   1.00000000   0.00000000   0.00000000
  -0.00006400  -0.00014300  -0.04449200   0.56936300   0.00000000   0.00000000   0.00000000
   0.00002300   0.00003400   0.00672700   0.54716900   0.00000000   1.00000000   0.00000000
  -0.00000900  -0.00001700  -0.00188900   0.06427600   0.00000000   0.00000000   1.00000000
   11    5
        634.16589000
        221.53708000
         95.04835300
         44.51809600
         21.67969800
         10.63330400
          5.09599380
          2.22941020
          0.91281590
          0.32887070
          0.10000000
   0.00277700  -0.00083000   0.00000000   0.00000000   0.00000000
   0.02115700  -0.00637300   0.00000000   0.00000000   0.00000000
   0.08857700  -0.02666600   0.00000000   0.00000000   0.00000000
   0.23336800  -0.07032000   0.00000000   0.00000000   0.00000000
   0.37777600  -0.10531100   0.00000000   0.00000000   0.00000000
   0.36762400  -0.07338900   0.00000000   0.00000000   0.00000000
   0.17431500   0.12165100   0.00000000   0.00000000   0.00000000
   0.02389700   0.37794900   0.00000000   0.00000000   0.00000000
  -0.00049800   0.45542800   1.00000000   0.00000000   0.00000000
   0.00030200   0.30394200   0.00000000   1.00000000   0.00000000
  -0.00006500   0.07233600   0.00000000   0.00000000   1.00000000
