************************************************************************
* This file is part of OpenMolcas.                                     *
*                                                                      *
* OpenMolcas is free software; you can redistribute it and/or modify   *
* it under the terms of the GNU Lesser General Public License, v. 2.1. *
* OpenMolcas is distributed in the hope that it will be useful, but it *
* is provided "as is" and without any express or implied warranties.   *
* For more details see the full text of the license in the file        *
* LICENSE or in <http://www.gnu.org/licenses/>.                        *
************************************************************************

#Hamiltonian NRH
#Nucleus UNK
#Contraction SEG
#AllElectron AE_

************************************************************************
* This file has been generated from Basis Set Exchange data:           *
*   https://www.basissetexchange.org                                   *
* Version: 1  (Data from Molcas/Dalton)                                *
************************************************************************

/H.Sadlej_pVTZ.Sadlej.6s4p.3s2p.
A.J. Sadlej. Collect. Czech. Chem. Commun. 53 (1988) 1995-2016. doi:10.1135/cccc19881995
HYDROGEN (6s,4p) -> [3s,2p]
     1.0   1
* s-type functions
    6    3
         33.68501400
          5.09478800
          1.15878600
          0.32584000
          0.10274100
          0.03240000
   0.00606800   0.00000000   0.00000000
   0.04531600   0.00000000   0.00000000
   0.20284600   0.00000000   0.00000000
   0.50370900   0.00000000   0.00000000
   0.00000000   1.00000000   0.00000000
   0.00000000   0.00000000   1.00000000
* p-type functions
    4    2
          1.15880000
          0.32580000
          0.10270000
          0.03240000
   0.18844000   0.00000000
   0.88242000   0.00000000
   0.00000000   0.11780000
   0.00000000   0.00420000

/Li.Sadlej_pVTZ.Sadlej.10s6p4d.5s3p2d.
A.J. Sadlej, M. Urban. J. Mol. Struct. THEOCHEM 234 (1991) 147-171. doi:10.1016/0166-1280(91)89010-x
LITHIUM (10s,6p,4d) -> [5s,3p,2d]
     3.0   2
* s-type functions
   10    5
       1359.44660000
        204.02647000
         46.54954100
         13.23259400
          4.28614800
          1.49554200
          0.54223800
          0.07396800
          0.02809500
          0.01067100
   0.00084400   0.00000000   0.00000000   0.00000000   0.00000000
   0.00648600   0.00000000   0.00000000   0.00000000   0.00000000
   0.03247700   0.00000000   0.00000000   0.00000000   0.00000000
   0.11742000   0.00000000   0.00000000   0.00000000   0.00000000
   0.29458000   0.00000000   0.00000000   0.00000000   0.00000000
   0.00000000   0.44951500   0.00000000   0.00000000   0.00000000
   0.00000000   0.25582300   0.00000000   0.00000000   0.00000000
   0.00000000   0.00000000   1.00000000   0.00000000   0.00000000
   0.00000000   0.00000000   0.00000000   1.00000000   0.00000000
   0.00000000   0.00000000   0.00000000   0.00000000   1.00000000
* p-type functions
    6    3
          4.17000000
          1.17256000
          0.32927000
          0.09271000
          0.02607000
          0.00733100
   0.00511200   0.00000000   0.00000000
   0.02090700   0.00000000   0.00000000
   0.09167200   0.00000000   0.00000000
   0.44926000   0.00000000   0.00000000
   0.00000000   1.00000000   0.00000000
   0.00000000   0.00000000   1.00000000
* d-type functions
    4    2
          0.32927000
          0.09271000
          0.02607000
          0.00733100
   0.15975700   0.00000000
   1.47548400   0.00000000
   0.00000000   0.37057800
   0.00000000   0.01784700

/Be.Sadlej_pVTZ.Sadlej.10s6p4d.5s3p2d.
A.J. Sadlej, M. Urban. J. Mol. Struct. THEOCHEM 234 (1991) 147-171. doi:10.1016/0166-1280(91)89010-x
BERYLLIUM (10s,6p,4d) -> [5s,3p,2d]
     4.0   2
* s-type functions
   10    5
       2732.32810000
        410.31981000
         93.67264800
         26.58795700
          8.62956000
          3.05626400
          1.13242400
          0.18173200
          0.05917000
          0.01926500
   0.00074500   0.00000000   0.00000000   0.00000000   0.00000000
   0.00572200   0.00000000   0.00000000   0.00000000   0.00000000
   0.02888000   0.00000000   0.00000000   0.00000000   0.00000000
   0.10707600   0.00000000   0.00000000   0.00000000   0.00000000
   0.28010100   0.00000000   0.00000000   0.00000000   0.00000000
   0.00000000   0.44544800   0.00000000   0.00000000   0.00000000
   0.00000000   0.28026200   0.00000000   0.00000000   0.00000000
   0.00000000   0.00000000   1.00000000   0.00000000   0.00000000
   0.00000000   0.00000000   0.00000000   1.00000000   0.00000000
   0.00000000   0.00000000   0.00000000   0.00000000   1.00000000
* p-type functions
    6    3
          7.64000000
          1.86360000
          0.45509000
          0.11107000
          0.02710800
          0.00661600
   0.00463000   0.00000000   0.00000000
   0.03296100   0.00000000   0.00000000
   0.12040400   0.00000000   0.00000000
   0.33952300   0.00000000   0.00000000
   0.00000000   1.00000000   0.00000000
   0.00000000   0.00000000   1.00000000
* d-type functions
    4    2
          0.45509000
          0.11107000
          0.02710800
          0.00661600
   0.17848000   0.00000000
   1.01876000   0.00000000
   0.00000000   0.42236400
   0.00000000   0.06003300

/C.Sadlej_pVTZ.Sadlej.10s6p4d.5s3p2d.
A.J. Sadlej. Collect. Czech. Chem. Commun. 53 (1988) 1995-2016. doi:10.1135/cccc19881995
CARBON (10s,6p,4d) -> [5s,3p,2d]
     6.0   2
* s-type functions
   10    5
       5240.63530000
        782.20480000
        178.35083000
         50.81594200
         16.82356200
          6.17577600
          2.41804900
          0.51190000
          0.15659000
          0.04790000
   0.00093700   0.00000000   0.00000000   0.00000000   0.00000000
   0.00722800   0.00000000   0.00000000   0.00000000   0.00000000
   0.03634400   0.00000000   0.00000000   0.00000000   0.00000000
   0.13060000   0.00000000   0.00000000   0.00000000   0.00000000
   0.31893100   0.00000000   0.00000000   0.00000000   0.00000000
   0.00000000   0.43874200   0.00000000   0.00000000   0.00000000
   0.00000000   0.21497400   0.00000000   0.00000000   0.00000000
   0.00000000   0.00000000   1.00000000   0.00000000   0.00000000
   0.00000000   0.00000000   0.00000000   1.00000000   0.00000000
   0.00000000   0.00000000   0.00000000   0.00000000   1.00000000
* p-type functions
    6    3
         18.84180000
          4.15924000
          1.20671000
          0.38554000
          0.12194000
          0.03856800
   0.01388700   0.00000000   0.00000000
   0.08627900   0.00000000   0.00000000
   0.28874400   0.00000000   0.00000000
   0.49941100   0.00000000   0.00000000
   0.00000000   1.00000000   0.00000000
   0.00000000   0.00000000   1.00000000
* d-type functions
    4    2
          1.20671000
          0.38554000
          0.12194000
          0.03865800
   0.26285200   0.00000000
   0.80430000   0.00000000
   0.00000000   0.65350000
   0.00000000   0.86360000

/N.Sadlej_pVTZ.Sadlej.10s6p4d.5s3p2d.
A.J. Sadlej. Collect. Czech. Chem. Commun. 53 (1988) 1995-2016. doi:10.1135/cccc19881995
NITROGEN (10s,6p,4d) -> [5s,3p,2d]
     7.0   2
* s-type functions
   10    5
       8104.07160000
       1216.02150000
        277.23428000
         76.90402300
         25.87441900
          9.34676700
          3.57979400
          0.73961000
          0.22261700
          0.06700600
   0.00080200   0.00000000   0.00000000   0.00000000   0.00000000
   0.00617400   0.00000000   0.00000000   0.00000000   0.00000000
   0.03123300   0.00000000   0.00000000   0.00000000   0.00000000
   0.11519800   0.00000000   0.00000000   0.00000000   0.00000000
   0.29695100   0.00000000   0.00000000   0.00000000   0.00000000
   0.00000000   0.44734900   0.00000000   0.00000000   0.00000000
   0.00000000   0.24500300   0.00000000   0.00000000   0.00000000
   0.00000000   0.00000000   1.00000000   0.00000000   0.00000000
   0.00000000   0.00000000   0.00000000   1.00000000   0.00000000
   0.00000000   0.00000000   0.00000000   0.00000000   1.00000000
* p-type functions
    6    3
         26.86898700
          5.99122700
          1.75084200
          0.56051100
          0.17594800
          0.05523100
   0.01447800   0.00000000   0.00000000
   0.09115600   0.00000000   0.00000000
   0.29742000   0.00000000   0.00000000
   0.49379600   0.00000000   0.00000000
   0.00000000   1.00000000   0.00000000
   0.00000000   0.00000000   1.00000000
* d-type functions
    4    2
          1.75084200
          0.56051100
          0.17594800
          0.05523100
   0.22477400   0.00000000
   0.65956200   0.00000000
   0.00000000   0.87135500
   0.00000000   0.70421700

/O.Sadlej_pVTZ.Sadlej.10s6p4d.5s3p2d.
A.J. Sadlej. Collect. Czech. Chem. Commun. 53 (1988) 1995-2016. doi:10.1135/cccc19881995
OXYGEN (10s,6p,4d) -> [5s,3p,2d]
     8.0   2
* s-type functions
   10    5
      10662.28500000
       1599.70970000
        364.72526000
        103.65179000
         33.90580500
         12.28746900
          4.75680500
          1.00427100
          0.30068600
          0.09003000
   0.00079900   0.00000000   0.00000000   0.00000000   0.00000000
   0.00615300   0.00000000   0.00000000   0.00000000   0.00000000
   0.03115700   0.00000000   0.00000000   0.00000000   0.00000000
   0.11559600   0.00000000   0.00000000   0.00000000   0.00000000
   0.30155200   0.00000000   0.00000000   0.00000000   0.00000000
   0.00000000   0.44487000   0.00000000   0.00000000   0.00000000
   0.00000000   0.24317200   0.00000000   0.00000000   0.00000000
   0.00000000   0.00000000   1.00000000   0.00000000   0.00000000
   0.00000000   0.00000000   0.00000000   1.00000000   0.00000000
   0.00000000   0.00000000   0.00000000   0.00000000   1.00000000
* p-type functions
    6    3
         34.85646300
          7.84313100
          2.30624900
          0.72316400
          0.21488200
          0.06385000
   0.01564800   0.00000000   0.00000000
   0.09819700   0.00000000   0.00000000
   0.30776800   0.00000000   0.00000000
   0.49247000   0.00000000   0.00000000
   0.00000000   1.00000000   0.00000000
   0.00000000   0.00000000   1.00000000
* d-type functions
    4    2
          2.30620000
          0.72320000
          0.21490000
          0.06390000
   0.20270000   0.00000000
   0.57910000   0.00000000
   0.00000000   0.78545000
   0.00000000   0.53387000

/F.Sadlej_pVTZ.Sadlej.10s6p4d.5s3p2d.
A.J. Sadlej. Collect. Czech. Chem. Commun. 53 (1988) 1995-2016. doi:10.1135/cccc19881995
FLUORINE (10s,6p,4d) -> [5s,3p,2d]
     9.0   2
* s-type functions
   10    5
      13521.52300000
       2028.69160000
        462.37392000
        131.37366000
         42.97453100
         15.57144000
          6.03223200
          1.30721500
          0.38886900
          0.11568000
   0.00080100   0.00000000   0.00000000   0.00000000   0.00000000
   0.00616400   0.00000000   0.00000000   0.00000000   0.00000000
   0.03124400   0.00000000   0.00000000   0.00000000   0.00000000
   0.11608100   0.00000000   0.00000000   0.00000000   0.00000000
   0.30358900   0.00000000   0.00000000   0.00000000   0.00000000
   0.00000000   0.44590400   0.00000000   0.00000000   0.00000000
   0.00000000   0.23911500   0.00000000   0.00000000   0.00000000
   0.00000000   0.00000000   1.00000000   0.00000000   0.00000000
   0.00000000   0.00000000   0.00000000   1.00000000   0.00000000
   0.00000000   0.00000000   0.00000000   0.00000000   1.00000000
* p-type functions
    6    3
         44.14730300
          9.99342600
          2.95324600
          0.91859700
          0.26682400
          0.07750000
   0.01650900   0.00000000   0.00000000
   0.10348100   0.00000000   0.00000000
   0.31541800   0.00000000   0.00000000
   0.48935300   0.00000000   0.00000000
   0.00000000   1.00000000   0.00000000
   0.00000000   0.00000000   1.00000000
* d-type functions
    4    2
          2.95320000
          0.91860000
          0.26680000
          0.07750000
   0.18354000   0.00000000
   0.51058000   0.00000000
   0.00000000   0.69925000
   0.00000000   0.42926000

/Na.Sadlej_pVTZ.Sadlej.13s10p4d.7s5p2d.
A.J. Sadlej, M. Urban. J. Mol. Struct. THEOCHEM 234 (1991) 147-171. doi:10.1016/0166-1280(91)89010-x
SODIUM (13s,10p,4d) -> [7s,5p,2d]
    11.0   2
* s-type functions
   13    7
      36166.40000000
       5372.58000000
       1213.21000000
        339.62000000
        109.55000000
         38.77700000
         14.57600000
          5.26990000
          1.82780000
          0.61990000
          0.05720000
          0.02400000
          0.01010000
   0.00103200   0.00000000   0.00000000   0.00000000   0.00000000   0.00000000   0.00000000
   0.00807100   0.00000000   0.00000000   0.00000000   0.00000000   0.00000000   0.00000000
   0.04212800   0.00000000   0.00000000   0.00000000   0.00000000   0.00000000   0.00000000
   0.16978600   0.00000000   0.00000000   0.00000000   0.00000000   0.00000000   0.00000000
   0.51460900   0.00000000   0.00000000   0.00000000   0.00000000   0.00000000   0.00000000
   0.37983400   0.37476300   0.00000000   0.00000000   0.00000000   0.00000000   0.00000000
   0.00000000   0.57577100   0.00000000   0.00000000   0.00000000   0.00000000   0.00000000
   0.00000000   0.11392800   0.00000000   0.00000000   0.00000000   0.00000000   0.00000000
   0.00000000   0.00000000   1.00000000   0.00000000   0.00000000   0.00000000   0.00000000
   0.00000000   0.00000000   0.00000000   1.00000000   0.00000000   0.00000000   0.00000000
   0.00000000   0.00000000   0.00000000   0.00000000   1.00000000   0.00000000   0.00000000
   0.00000000   0.00000000   0.00000000   0.00000000   0.00000000   1.00000000   0.00000000
   0.00000000   0.00000000   0.00000000   0.00000000   0.00000000   0.00000000   1.00000000
* p-type functions
   10    5
        144.64500000
         33.90700000
         10.62900000
          3.82390000
          1.44430000
          0.55260000
          0.18870000
          0.04650000
          0.01630000
          0.00570000
   0.00545700   0.00000000   0.00000000   0.00000000   0.00000000
   0.03913800   0.00000000   0.00000000   0.00000000   0.00000000
   0.15192400   0.00000000   0.00000000   0.00000000   0.00000000
   0.33309800   0.00000000   0.00000000   0.00000000   0.00000000
   0.42228400   0.00000000   0.00000000   0.00000000   0.00000000
   0.28119700   0.00000000   0.00000000   0.00000000   0.00000000
   0.00000000   1.00000000   0.00000000   0.00000000   0.00000000
   0.00000000   0.00000000   1.00000000   0.00000000   0.00000000
   0.00000000   0.00000000   0.00000000   1.00000000   0.00000000
   0.00000000   0.00000000   0.00000000   0.00000000   1.00000000
* d-type functions
    4    2
          1.44430000
          0.55260000
          0.18870000
          0.04650000
   0.35137900   0.00000000
   0.37827300   0.00000000
   0.00000000   0.01118000
   0.00000000   0.27875100

/Mg.Sadlej_pVTZ.Sadlej.13s10p4d.7s5p2d.
A.J. Sadlej, M. Urban. J. Mol. Struct. THEOCHEM 234 (1991) 147-171. doi:10.1016/0166-1280(91)89010-x
MAGNESIUM (13s,10p,4d) -> [7s,5p,2d]
    12.0   2
* s-type functions
   13    7
      43866.50000000
       6605.37000000
       1513.26000000
        432.31700000
        142.14900000
         51.39800000
         19.92000000
          8.02470000
          2.50820000
          0.87150000
          0.10820000
          0.04010000
          0.01490000
   0.00091800   0.00000000   0.00000000   0.00000000   0.00000000   0.00000000   0.00000000
   0.00704700   0.00000000   0.00000000   0.00000000   0.00000000   0.00000000   0.00000000
   0.03594100   0.00000000   0.00000000   0.00000000   0.00000000   0.00000000   0.00000000
   0.14146100   0.00000000   0.00000000   0.00000000   0.00000000   0.00000000   0.00000000
   0.42676300   0.00000000   0.00000000   0.00000000   0.00000000   0.00000000   0.00000000
   0.49797600   0.25135500   0.00000000   0.00000000   0.00000000   0.00000000   0.00000000
   0.00000000   0.61867100   0.00000000   0.00000000   0.00000000   0.00000000   0.00000000
   0.00000000   0.18841600   0.00000000   0.00000000   0.00000000   0.00000000   0.00000000
   0.00000000   0.00000000   1.00000000   0.00000000   0.00000000   0.00000000   0.00000000
   0.00000000   0.00000000   0.00000000   1.00000000   0.00000000   0.00000000   0.00000000
   0.00000000   0.00000000   0.00000000   0.00000000   1.00000000   0.00000000   0.00000000
   0.00000000   0.00000000   0.00000000   0.00000000   0.00000000   1.00000000   0.00000000
   0.00000000   0.00000000   0.00000000   0.00000000   0.00000000   0.00000000   1.00000000
* p-type functions
   10    5
        193.85400000
         45.44200000
         14.18600000
          5.05750000
          1.88860000
          0.72270000
          0.23640000
          0.09340000
          0.03480000
          0.01300000
   0.00480200   0.00000000   0.00000000   0.00000000   0.00000000
   0.03551600   0.00000000   0.00000000   0.00000000   0.00000000
   0.14489300   0.00000000   0.00000000   0.00000000   0.00000000
   0.33817900   0.00000000   0.00000000   0.00000000   0.00000000
   0.44110400   0.00000000   0.00000000   0.00000000   0.00000000
   0.26084900   0.00000000   0.00000000   0.00000000   0.00000000
   0.00000000   1.00000000   0.00000000   0.00000000   0.00000000
   0.00000000   0.00000000   1.00000000   0.00000000   0.00000000
   0.00000000   0.00000000   0.00000000   1.00000000   0.00000000
   0.00000000   0.00000000   0.00000000   0.00000000   1.00000000
* d-type functions
    4    2
          1.88860000
          0.72270000
          0.23640000
          0.09340000
   0.32097500   0.00000000
   0.30683900   0.00000000
   0.00000000   0.02804400
   0.00000000   0.17855400

/Si.Sadlej_pVTZ.Sadlej.13s10p4d.7s5p2d.
A.J. Sadlej. Theor. Chim. Acta 79 (1991) 123-140. doi:10.1007/bf01127101
SILICON (13s,10p,4d) -> [7s,5p,2d]
    14.0   2
* s-type functions
   13    7
      69379.23000000
      10354.94000000
       2333.88000000
        657.14000000
        214.30000000
         77.62900000
         30.63100000
         12.80100000
          3.92690000
          1.45230000
          0.25620000
          0.09430000
          0.03470000
   0.00075700   0.00000000   0.00000000   0.00000000   0.00000000   0.00000000   0.00000000
   0.00593200   0.00000000   0.00000000   0.00000000   0.00000000   0.00000000   0.00000000
   0.03108800   0.00000000   0.00000000   0.00000000   0.00000000   0.00000000   0.00000000
   0.12496600   0.00000000   0.00000000   0.00000000   0.00000000   0.00000000   0.00000000
   0.38689600   0.00000000   0.00000000   0.00000000   0.00000000   0.00000000   0.00000000
   0.55489000   0.17788200   0.00000000   0.00000000   0.00000000   0.00000000   0.00000000
   0.00000000   0.62775600   0.00000000   0.00000000   0.00000000   0.00000000   0.00000000
   0.00000000   0.24763100   0.00000000   0.00000000   0.00000000   0.00000000   0.00000000
   0.00000000   0.00000000   1.00000000   0.00000000   0.00000000   0.00000000   0.00000000
   0.00000000   0.00000000   0.00000000   1.00000000   0.00000000   0.00000000   0.00000000
   0.00000000   0.00000000   0.00000000   0.00000000   1.00000000   0.00000000   0.00000000
   0.00000000   0.00000000   0.00000000   0.00000000   0.00000000   1.00000000   0.00000000
   0.00000000   0.00000000   0.00000000   0.00000000   0.00000000   0.00000000   1.00000000
* p-type functions
   10    5
        335.48000000
         78.90000000
         24.98800000
          9.21970000
          3.62110000
          1.45130000
          0.50500000
          0.18630000
          0.06540000
          0.02300000
   0.00361600   0.00000000   0.00000000   0.00000000   0.00000000
   0.02786600   0.00000000   0.00000000   0.00000000   0.00000000
   0.11867800   0.00000000   0.00000000   0.00000000   0.00000000
   0.29875000   0.00000000   0.00000000   0.00000000   0.00000000
   0.44119200   0.00000000   0.00000000   0.00000000   0.00000000
   0.31270100   0.00000000   0.00000000   0.00000000   0.00000000
   0.00000000   1.00000000   0.00000000   0.00000000   0.00000000
   0.00000000   0.00000000   1.00000000   0.00000000   0.00000000
   0.00000000   0.00000000   0.00000000   1.00000000   0.00000000
   0.00000000   0.00000000   0.00000000   0.00000000   1.00000000
* d-type functions
    4    2
          0.50500000
          0.18630000
          0.06540000
          0.02300000
   0.22610000   0.00000000
   1.07590000   0.00000000
   0.00000000   0.16360000
   0.00000000   0.10770000

/P.Sadlej_pVTZ.Sadlej.13s10p4d.7s5p2d.
A.J. Sadlej. Theor. Chim. Acta 79 (1991) 123-140. doi:10.1007/bf01127101
PHOSPHORUS (13s,10p,4d) -> [7s,5p,2d]
    15.0   2
* s-type functions
   13    7
      77492.43000000
      11605.79000000
       2645.96000000
        754.98000000
        248.75000000
         91.15700000
         36.22600000
         15.21100000
          4.71380000
          1.78270000
          0.34250000
          0.12460000
          0.04530000
   0.00078700   0.00000000   0.00000000   0.00000000   0.00000000   0.00000000   0.00000000
   0.00610900   0.00000000   0.00000000   0.00000000   0.00000000   0.00000000   0.00000000
   0.03136800   0.00000000   0.00000000   0.00000000   0.00000000   0.00000000   0.00000000
   0.12429100   0.00000000   0.00000000   0.00000000   0.00000000   0.00000000   0.00000000
   0.38068200   0.00000000   0.00000000   0.00000000   0.00000000   0.00000000   0.00000000
   0.55998900   0.16399700   0.00000000   0.00000000   0.00000000   0.00000000   0.00000000
   0.00000000   0.62592700   0.00000000   0.00000000   0.00000000   0.00000000   0.00000000
   0.00000000   0.26221100   0.00000000   0.00000000   0.00000000   0.00000000   0.00000000
   0.00000000   0.00000000   1.00000000   0.00000000   0.00000000   0.00000000   0.00000000
   0.00000000   0.00000000   0.00000000   1.00000000   0.00000000   0.00000000   0.00000000
   0.00000000   0.00000000   0.00000000   0.00000000   1.00000000   0.00000000   0.00000000
   0.00000000   0.00000000   0.00000000   0.00000000   0.00000000   1.00000000   0.00000000
   0.00000000   0.00000000   0.00000000   0.00000000   0.00000000   0.00000000   1.00000000
* p-type functions
   10    5
        384.84000000
         90.55200000
         28.80600000
         10.68800000
          4.25210000
          1.74050000
          0.59790000
          0.22920000
          0.08380000
          0.03060000
   0.00376500   0.00000000   0.00000000   0.00000000   0.00000000
   0.02901000   0.00000000   0.00000000   0.00000000   0.00000000
   0.12295300   0.00000000   0.00000000   0.00000000   0.00000000
   0.30647000   0.00000000   0.00000000   0.00000000   0.00000000
   0.44134900   0.00000000   0.00000000   0.00000000   0.00000000
   0.29581700   0.00000000   0.00000000   0.00000000   0.00000000
   0.00000000   1.00000000   0.00000000   0.00000000   0.00000000
   0.00000000   0.00000000   1.00000000   0.00000000   0.00000000
   0.00000000   0.00000000   0.00000000   1.00000000   0.00000000
   0.00000000   0.00000000   0.00000000   0.00000000   1.00000000
* d-type functions
    4    2
          0.59790000
          0.22920000
          0.08380000
          0.03060000
   0.30930000   0.00000000
   0.97150000   0.00000000
   0.00000000   0.12780000
   0.00000000   0.07740000

/S.Sadlej_pVTZ.Sadlej.13s10p4d.7s5p2d.
A.J. Sadlej. Theor. Chim. Acta 79 (1991) 123-140. doi:10.1007/bf01127101
SULFUR (13s,10p,4d) -> [7s,5p,2d]
    16.0   2
* s-type functions
   13    7
      99413.40000000
      13961.70000000
       3169.90000000
        902.46000000
        297.16000000
        108.70200000
         43.15500000
         18.10800000
          5.57050000
          2.14270000
          0.43400000
          0.15700000
          0.05680000
   0.00074200   0.00000000   0.00000000   0.00000000   0.00000000   0.00000000   0.00000000
   0.00579000   0.00000000   0.00000000   0.00000000   0.00000000   0.00000000   0.00000000
   0.02994100   0.00000000   0.00000000   0.00000000   0.00000000   0.00000000   0.00000000
   0.11897500   0.00000000   0.00000000   0.00000000   0.00000000   0.00000000   0.00000000
   0.36829000   0.00000000   0.00000000   0.00000000   0.00000000   0.00000000   0.00000000
   0.57748900   0.14293200   0.00000000   0.00000000   0.00000000   0.00000000   0.00000000
   0.00000000   0.62464900   0.00000000   0.00000000   0.00000000   0.00000000   0.00000000
   0.00000000   0.28340000   0.00000000   0.00000000   0.00000000   0.00000000   0.00000000
   0.00000000   0.00000000   1.00000000   0.00000000   0.00000000   0.00000000   0.00000000
   0.00000000   0.00000000   0.00000000   1.00000000   0.00000000   0.00000000   0.00000000
   0.00000000   0.00000000   0.00000000   0.00000000   1.00000000   0.00000000   0.00000000
   0.00000000   0.00000000   0.00000000   0.00000000   0.00000000   1.00000000   0.00000000
   0.00000000   0.00000000   0.00000000   0.00000000   0.00000000   0.00000000   1.00000000
* p-type functions
   10    5
        495.04000000
        117.22000000
         37.50700000
         13.91000000
          5.50450000
          2.24330000
          0.77620000
          0.29190000
          0.10290000
          0.03630000
   0.00317100   0.00000000   0.00000000   0.00000000   0.00000000
   0.02464300   0.00000000   0.00000000   0.00000000   0.00000000
   0.10784500   0.00000000   0.00000000   0.00000000   0.00000000
   0.28848900   0.00000000   0.00000000   0.00000000   0.00000000
   0.44810800   0.00000000   0.00000000   0.00000000   0.00000000
   0.32051700   0.00000000   0.00000000   0.00000000   0.00000000
   0.00000000   1.00000000   0.00000000   0.00000000   0.00000000
   0.00000000   0.00000000   1.00000000   0.00000000   0.00000000
   0.00000000   0.00000000   0.00000000   1.00000000   0.00000000
   0.00000000   0.00000000   0.00000000   0.00000000   1.00000000
* d-type functions
    4    2
          0.77620000
          0.29190000
          0.10290000
          0.03630000
   0.29150000   0.00000000
   0.89660000   0.00000000
   0.00000000   0.11380000
   0.00000000   0.05680000

/Cl.Sadlej_pVTZ.Sadlej.13s10p4d.7s5p2d.
A.J. Sadlej. Theor. Chim. Acta 79 (1991) 123-140. doi:10.1007/bf01127101
CHLORINE (13s,10p,4d) -> [7s,5p,2d]
    17.0   2
* s-type functions
   13    7
     105818.80000000
      15872.00000000
       3619.70000000
       1030.80000000
        339.91000000
        124.53800000
         49.51400000
         20.80600000
          6.46480000
          2.52540000
          0.53780000
          0.19350000
          0.06960000
   0.00074300   0.00000000   0.00000000   0.00000000   0.00000000   0.00000000   0.00000000
   0.00575400   0.00000000   0.00000000   0.00000000   0.00000000   0.00000000   0.00000000
   0.02967400   0.00000000   0.00000000   0.00000000   0.00000000   0.00000000   0.00000000
   0.11799100   0.00000000   0.00000000   0.00000000   0.00000000   0.00000000   0.00000000
   0.36531900   0.00000000   0.00000000   0.00000000   0.00000000   0.00000000   0.00000000
   0.58114600   0.13754300   0.00000000   0.00000000   0.00000000   0.00000000   0.00000000
   0.00000000   0.62292000   0.00000000   0.00000000   0.00000000   0.00000000   0.00000000
   0.00000000   0.29010600   0.00000000   0.00000000   0.00000000   0.00000000   0.00000000
   0.00000000   0.00000000   1.00000000   0.00000000   0.00000000   0.00000000   0.00000000
   0.00000000   0.00000000   0.00000000   1.00000000   0.00000000   0.00000000   0.00000000
   0.00000000   0.00000000   0.00000000   0.00000000   1.00000000   0.00000000   0.00000000
   0.00000000   0.00000000   0.00000000   0.00000000   0.00000000   1.00000000   0.00000000
   0.00000000   0.00000000   0.00000000   0.00000000   0.00000000   0.00000000   1.00000000
* p-type functions
   10    5
        589.78000000
        139.85000000
         44.79500000
         16.61200000
          6.59950000
          2.71410000
          0.95280000
          0.35800000
          0.12500000
          0.04360000
   0.00298200   0.00000000   0.00000000   0.00000000   0.00000000
   0.02337500   0.00000000   0.00000000   0.00000000   0.00000000
   0.10399800   0.00000000   0.00000000   0.00000000   0.00000000
   0.28443000   0.00000000   0.00000000   0.00000000   0.00000000
   0.45068600   0.00000000   0.00000000   0.00000000   0.00000000
   0.32306400   0.00000000   0.00000000   0.00000000   0.00000000
   0.00000000   1.00000000   0.00000000   0.00000000   0.00000000
   0.00000000   0.00000000   1.00000000   0.00000000   0.00000000
   0.00000000   0.00000000   0.00000000   1.00000000   0.00000000
   0.00000000   0.00000000   0.00000000   0.00000000   1.00000000
* d-type functions
    4    2
          0.95280000
          0.35800000
          0.12500000
          0.04360000
   0.28531500   0.00000000
   0.81693900   0.00000000
   0.00000000   0.10134300
   0.00000000   0.04305400

/K.Sadlej_pVTZ.Sadlej.15s13p4d.9s7p2d.
A.J. Sadlej, M. Urban. J. Mol. Struct. THEOCHEM 234 (1991) 147-171. doi:10.1016/0166-1280(91)89010-x
POTASSIUM (15s,13p,4d) -> [9s,7p,2d]
    19.0   2
* s-type functions
   15    9
     151351.90000000
      22745.91000000
       5227.16600000
       1500.18800000
        495.47030000
        180.90080000
         71.21769000
         29.38428000
          8.69924300
          3.47330400
          0.81456200
          0.31891500
          0.03548400
          0.01639000
          0.00757000
   0.00025850   0.00007450  -0.00002450   0.00000000   0.00000000   0.00000000   0.00000000   0.00000000   0.00000000
   0.00199200   0.00056980  -0.00018820   0.00000000   0.00000000   0.00000000   0.00000000   0.00000000   0.00000000
   0.01014690   0.00295990  -0.00097180   0.00000000   0.00000000   0.00000000   0.00000000   0.00000000   0.00000000
   0.04036660   0.01176040  -0.00390390   0.00000000   0.00000000   0.00000000   0.00000000   0.00000000   0.00000000
   0.12730020   0.04002060  -0.01318970   0.00000000   0.00000000   0.00000000   0.00000000   0.00000000   0.00000000
   0.29858250   0.10237690  -0.03477070   0.00000000   0.00000000   0.00000000   0.00000000   0.00000000   0.00000000
   0.41850020   0.20508810  -0.07005520   0.00000000   0.00000000   0.00000000   0.00000000   0.00000000   0.00000000
   0.23708130   0.13515080  -0.05254560   0.00000000   0.00000000   0.00000000   0.00000000   0.00000000   0.00000000
   0.02020670  -0.50257140   0.24206320   0.00000000   0.00000000   0.00000000   0.00000000   0.00000000   0.00000000
   0.00000000   0.00000000   0.00000000   1.00000000   0.00000000   0.00000000   0.00000000   0.00000000   0.00000000
   0.00000000   0.00000000   0.00000000   0.00000000   1.00000000   0.00000000   0.00000000   0.00000000   0.00000000
   0.00000000   0.00000000   0.00000000   0.00000000   0.00000000   1.00000000   0.00000000   0.00000000   0.00000000
   0.00000000   0.00000000   0.00000000   0.00000000   0.00000000   0.00000000   1.00000000   0.00000000   0.00000000
   0.00000000   0.00000000   0.00000000   0.00000000   0.00000000   0.00000000   0.00000000   1.00000000   0.00000000
   0.00000000   0.00000000   0.00000000   0.00000000   0.00000000   0.00000000   0.00000000   0.00000000   1.00000000
* p-type functions
   13    7
        868.39030000
        205.57650000
         65.91233000
         24.59863000
          9.88228100
          4.11675100
          1.55600400
          0.61218800
          0.22305300
          0.08126000
          0.02961000
          0.01079000
          0.00393000
   0.00233510   0.00017880   0.00000000   0.00000000   0.00000000   0.00000000   0.00000000
   0.01875440   0.00576410   0.00000000   0.00000000   0.00000000   0.00000000   0.00000000
   0.08655860   0.02746990   0.00000000   0.00000000   0.00000000   0.00000000   0.00000000
   0.25027990   0.08139200   0.00000000   0.00000000   0.00000000   0.00000000   0.00000000
   0.43003970   0.15135980   0.00000000   0.00000000   0.00000000   0.00000000   0.00000000
   0.35114370   0.10827110   0.00000000   0.00000000   0.00000000   0.00000000   0.00000000
   0.06641970  -0.26193700   0.00000000   0.00000000   0.00000000   0.00000000   0.00000000
  -0.05125300  -0.58403100   0.00000000   0.00000000   0.00000000   0.00000000   0.00000000
   0.00000000   0.00000000   1.00000000   0.00000000   0.00000000   0.00000000   0.00000000
   0.00000000   0.00000000   0.00000000   1.00000000   0.00000000   0.00000000   0.00000000
   0.00000000   0.00000000   0.00000000   0.00000000   1.00000000   0.00000000   0.00000000
   0.00000000   0.00000000   0.00000000   0.00000000   0.00000000   1.00000000   0.00000000
   0.00000000   0.00000000   0.00000000   0.00000000   0.00000000   0.00000000   1.00000000
* d-type functions
    4    2
          0.61219000
          0.22305000
          0.02961000
          0.01079000
   0.57237000   0.00000000
   0.66528000   0.00000000
   0.00000000   0.37658000
   0.00000000   0.37295000

/Ca.Sadlej_pVTZ.Sadlej.15s13p4d.9s7p2d.
A.J. Sadlej, M. Urban. J. Mol. Struct. THEOCHEM 234 (1991) 147-171. doi:10.1016/0166-1280(91)89010-x
CALCIUM (15s,13p,4d) -> [9s,7p,2d]
    20.0   2
* s-type functions
   15    9
     171297.15000000
      25997.43000000
       5996.48000000
       1714.73000000
        563.65320000
        204.94600000
         80.45147000
         33.14092000
          9.87914600
          3.99467000
          0.98534300
          0.41161600
          0.06560500
          0.02674000
          0.01062000
   0.00025100  -0.00007310   0.00002510   0.00000000   0.00000000   0.00000000   0.00000000   0.00000000   0.00000000
   0.00190900  -0.00055180   0.00019060   0.00000000   0.00000000   0.00000000   0.00000000   0.00000000   0.00000000
   0.00973920  -0.00286960   0.00098530   0.00000000   0.00000000   0.00000000   0.00000000   0.00000000   0.00000000
   0.03910600  -0.01151110   0.00399620   0.00000000   0.00000000   0.00000000   0.00000000   0.00000000   0.00000000
   0.12449940  -0.03947140   0.01360870   0.00000000   0.00000000   0.00000000   0.00000000   0.00000000   0.00000000
   0.29520870  -0.10212320   0.03628250   0.00000000   0.00000000   0.00000000   0.00000000   0.00000000   0.00000000
   0.41956110  -0.20617240   0.07376420   0.00000000   0.00000000   0.00000000   0.00000000   0.00000000   0.00000000
   0.24275360  -0.14147230   0.05758500   0.00000000   0.00000000   0.00000000   0.00000000   0.00000000   0.00000000
   0.02151540   0.49590070  -0.25268930   0.00000000   0.00000000   0.00000000   0.00000000   0.00000000   0.00000000
   0.00000000   0.00000000   0.00000000   1.00000000   0.00000000   0.00000000   0.00000000   0.00000000   0.00000000
   0.00000000   0.00000000   0.00000000   0.00000000   1.00000000   0.00000000   0.00000000   0.00000000   0.00000000
   0.00000000   0.00000000   0.00000000   0.00000000   0.00000000   1.00000000   0.00000000   0.00000000   0.00000000
   0.00000000   0.00000000   0.00000000   0.00000000   0.00000000   0.00000000   1.00000000   0.00000000   0.00000000
   0.00000000   0.00000000   0.00000000   0.00000000   0.00000000   0.00000000   0.00000000   1.00000000   0.00000000
   0.00000000   0.00000000   0.00000000   0.00000000   0.00000000   0.00000000   0.00000000   0.00000000   1.00000000
* p-type functions
   13    7
       1003.02700000
        237.82390000
         76.56948000
         28.73768000
         11.63688000
          4.90320800
          1.92337000
          0.78005800
          0.29376400
          0.11063000
          0.04166000
          0.01569000
          0.00591000
   0.00222070  -0.00072750   0.00000000   0.00000000   0.00000000   0.00000000   0.00000000
   0.01786480  -0.00585370   0.00000000   0.00000000   0.00000000   0.00000000   0.00000000
   0.08273140  -0.02794790   0.00000000   0.00000000   0.00000000   0.00000000   0.00000000
   0.24195210  -0.08405700   0.00000000   0.00000000   0.00000000   0.00000000   0.00000000
   0.42420780  -0.15902850   0.00000000   0.00000000   0.00000000   0.00000000   0.00000000
   0.35857820  -0.12159820   0.00000000   0.00000000   0.00000000   0.00000000   0.00000000
   0.07503820   0.24858350   0.00000000   0.00000000   0.00000000   0.00000000   0.00000000
   0.00451020   0.59543360   0.00000000   0.00000000   0.00000000   0.00000000   0.00000000
   0.00000000   0.00000000   1.00000000   0.00000000   0.00000000   0.00000000   0.00000000
   0.00000000   0.00000000   0.00000000   1.00000000   0.00000000   0.00000000   0.00000000
   0.00000000   0.00000000   0.00000000   0.00000000   1.00000000   0.00000000   0.00000000
   0.00000000   0.00000000   0.00000000   0.00000000   0.00000000   1.00000000   0.00000000
   0.00000000   0.00000000   0.00000000   0.00000000   0.00000000   0.00000000   1.00000000
* d-type functions
    4    2
          0.78006000
          0.29376000
          0.04166000
          0.01569000
   0.51870000   0.00000000
   0.56587000   0.00000000
   0.00000000   0.33335000
   0.00000000   0.14089000

/Ge.Sadlej_pVTZ.Sadlej.15s12p9d4f.9s7p4d2f.
A.J. Sadlej. Theor. Chim. Acta 81 (1991) 45-63. doi:10.1007/bf01113377
GERMANIUM (15s,12p,9d,4f) -> [9s,7p,4d,2f]
    32.0   3
* s-type functions
   15    9
     348299.80000000
      52638.12000000
      12018.36000000
       3406.95100000
       1157.69900000
        442.18500000
        180.04460000
         76.50783000
         26.77091000
         11.43546000
          3.02347400
          1.15927500
          0.24169500
          0.08268100
          0.02828400
   0.00033830   0.00010550   0.00004050   0.00001040   0.00000000   0.00000000   0.00000000   0.00000000   0.00000000
   0.00257920   0.00080020   0.00030990   0.00007920   0.00000000   0.00000000   0.00000000   0.00000000   0.00000000
   0.01345930   0.00425240   0.00162830   0.00041630   0.00000000   0.00000000   0.00000000   0.00000000   0.00000000
   0.05267270   0.01678780   0.00656120   0.00167580   0.00000000   0.00000000   0.00000000   0.00000000   0.00000000
   0.15126060   0.05255140   0.02018350   0.00517180   0.00000000   0.00000000   0.00000000   0.00000000   0.00000000
   0.32251210   0.12574230   0.05113860   0.01309770   0.00000000   0.00000000   0.00000000   0.00000000   0.00000000
   0.40681470   0.23420570   0.09375540   0.02427560   0.00000000   0.00000000   0.00000000   0.00000000   0.00000000
   0.18899640   0.10278610   0.05541300   0.01433900   0.00000000   0.00000000   0.00000000   0.00000000   0.00000000
   0.01145880  -0.55637240  -0.36924290  -0.10026020   0.00000000   0.00000000   0.00000000   0.00000000   0.00000000
  -0.00106550  -0.56955710  -0.45284320  -0.13234430   0.00000000   0.00000000   0.00000000   0.00000000   0.00000000
   0.00000000   0.00000000   0.00000000   0.00000000   1.00000000   0.00000000   0.00000000   0.00000000   0.00000000
   0.00000000   0.00000000   0.00000000   0.00000000   0.00000000   1.00000000   0.00000000   0.00000000   0.00000000
   0.00000000   0.00000000   0.00000000   0.00000000   0.00000000   0.00000000   1.00000000   0.00000000   0.00000000
   0.00000000   0.00000000   0.00000000   0.00000000   0.00000000   0.00000000   0.00000000   1.00000000   0.00000000
   0.00000000   0.00000000   0.00000000   0.00000000   0.00000000   0.00000000   0.00000000   0.00000000   1.00000000
* p-type functions
   12    7
       2581.75100000
        620.99840000
        203.71770000
         77.57168000
         32.38502000
         14.24833000
          6.01078800
          2.56150900
          1.06129600
          0.28263200
          0.08455100
          0.02529400
   0.00253420  -0.00098050  -0.00019450   0.00000000   0.00000000   0.00000000   0.00000000
   0.01992400  -0.00773730  -0.00151990   0.00000000   0.00000000   0.00000000   0.00000000
   0.09211530  -0.03708600  -0.00739880   0.00000000   0.00000000   0.00000000   0.00000000
   0.26704160  -0.11214990  -0.02215070   0.00000000   0.00000000   0.00000000   0.00000000
   0.43749290  -0.20102810  -0.04114360   0.00000000   0.00000000   0.00000000   0.00000000
   0.31297360  -0.09085300  -0.01475540   0.00000000   0.00000000   0.00000000   0.00000000
   0.05586490   0.35071040   0.07956890   0.00000000   0.00000000   0.00000000   0.00000000
   0.00003160   0.55823080   0.15404920   0.00000000   0.00000000   0.00000000   0.00000000
   0.00000000   0.00000000   0.00000000   1.00000000   0.00000000   0.00000000   0.00000000
   0.00000000   0.00000000   0.00000000   0.00000000   1.00000000   0.00000000   0.00000000
   0.00000000   0.00000000   0.00000000   0.00000000   0.00000000   1.00000000   0.00000000
   0.00000000   0.00000000   0.00000000   0.00000000   0.00000000   0.00000000   1.00000000
* d-type functions
    9    4
         68.53021000
         19.35644000
          6.60001400
          2.28840900
          0.74114900
          1.06130000
          0.28263000
          0.08455000
          0.02529000
   0.03019590   0.00000000   0.00000000   0.00000000
   0.16570030   0.00000000   0.00000000   0.00000000
   0.39711270   0.00000000   0.00000000   0.00000000
   0.00000000   0.47032610   0.00000000   0.00000000
   0.00000000   0.25233450   0.00000000   0.00000000
   0.00000000   0.00000000  -0.02450000   0.00000000
   0.00000000   0.00000000   0.76234000   0.00000000
   0.00000000   0.00000000   0.00000000   0.19214000
   0.00000000   0.00000000   0.00000000   0.14193000
* f-type functions
    4    2
         19.35640000
          6.60001000
          2.28841000
          0.74115000
   0.03766000   0.00000000
   0.16123000   0.00000000
   0.00000000   0.31091000
   0.00000000   0.29311000

/As.Sadlej_pVTZ.Sadlej.15s12p9d4f.9s7p4d2f.
A.J. Sadlej. Theor. Chim. Acta 81 (1991) 45-63. doi:10.1007/bf01113377
ARSENIC (15s,12p,9d,4f) -> [9s,7p,4d,2f]
    33.0   3
* s-type functions
   15    9
     373201.10000000
      54939.83000000
      12270.63000000
       3538.01000000
       1218.19300000
        464.85290000
        189.43230000
         81.75079000
         28.83275000
         12.45438000
          3.67700300
          1.55286400
          0.29114400
          0.10723200
          0.03949500
   0.00033710   0.00010550   0.00004100  -0.00001130   0.00000000   0.00000000   0.00000000   0.00000000   0.00000000
   0.00270180   0.00084160   0.00032890  -0.00009040   0.00000000   0.00000000   0.00000000   0.00000000   0.00000000
   0.01412570   0.00447580   0.00173680  -0.00047740   0.00000000   0.00000000   0.00000000   0.00000000   0.00000000
   0.05322520   0.01704730   0.00671520  -0.00184660   0.00000000   0.00000000   0.00000000   0.00000000   0.00000000
   0.15230400   0.05307860   0.02071470  -0.00570370   0.00000000   0.00000000   0.00000000   0.00000000   0.00000000
   0.32639650   0.12841610   0.05244900  -0.01448060   0.00000000   0.00000000   0.00000000   0.00000000   0.00000000
   0.40286540   0.23367620   0.09580170  -0.02662390   0.00000000   0.00000000   0.00000000   0.00000000   0.00000000
   0.18538150   0.10134690   0.05274020  -0.01486820   0.00000000   0.00000000   0.00000000   0.00000000   0.00000000
   0.01328750  -0.54721220  -0.35916810   0.10570780   0.00000000   0.00000000   0.00000000   0.00000000   0.00000000
  -0.00193400  -0.57154110  -0.48262020   0.15123790   0.00000000   0.00000000   0.00000000   0.00000000   0.00000000
   0.00000000   0.00000000   0.00000000   0.00000000   1.00000000   0.00000000   0.00000000   0.00000000   0.00000000
   0.00000000   0.00000000   0.00000000   0.00000000   0.00000000   1.00000000   0.00000000   0.00000000   0.00000000
   0.00000000   0.00000000   0.00000000   0.00000000   0.00000000   0.00000000   1.00000000   0.00000000   0.00000000
   0.00000000   0.00000000   0.00000000   0.00000000   0.00000000   0.00000000   0.00000000   1.00000000   0.00000000
   0.00000000   0.00000000   0.00000000   0.00000000   0.00000000   0.00000000   0.00000000   0.00000000   1.00000000
* p-type functions
   12    7
       2782.85800000
        669.03840000
        218.79850000
         83.48981000
         34.92050000
         15.48738000
          6.57016300
          2.84188000
          1.21041900
          0.32825000
          0.10336100
          0.03254700
   0.00248630  -0.00097640  -0.00021870   0.00000000   0.00000000   0.00000000   0.00000000
   0.01974570  -0.00778510  -0.00172040   0.00000000   0.00000000   0.00000000   0.00000000
   0.09150110  -0.03739900  -0.00843070   0.00000000   0.00000000   0.00000000   0.00000000
   0.26569870  -0.11336230  -0.02517270   0.00000000   0.00000000   0.00000000   0.00000000
   0.43554290  -0.20339400  -0.04726480   0.00000000   0.00000000   0.00000000   0.00000000
   0.31327820  -0.09370840  -0.01642310   0.00000000   0.00000000   0.00000000   0.00000000
   0.05959950   0.34592660   0.08750090   0.00000000   0.00000000   0.00000000   0.00000000
  -0.00075080   0.55710490   0.18184430   0.00000000   0.00000000   0.00000000   0.00000000
   0.00000000   0.00000000   0.00000000   1.00000000   0.00000000   0.00000000   0.00000000
   0.00000000   0.00000000   0.00000000   0.00000000   1.00000000   0.00000000   0.00000000
   0.00000000   0.00000000   0.00000000   0.00000000   0.00000000   1.00000000   0.00000000
   0.00000000   0.00000000   0.00000000   0.00000000   0.00000000   0.00000000   1.00000000
* d-type functions
    9    4
         73.62860000
         20.88949000
          7.21765200
          2.56930400
          0.86394100
          1.21042000
          0.32825000
          0.10336000
          0.03255000
   0.03150970   0.00000000   0.00000000   0.00000000
   0.17144950   0.00000000   0.00000000   0.00000000
   0.40173420   0.00000000   0.00000000   0.00000000
   0.00000000   0.46556530   0.00000000   0.00000000
   0.00000000   0.23425300   0.00000000   0.00000000
   0.00000000   0.00000000  -0.01396000   0.00000000
   0.00000000   0.00000000   0.82417000   0.00000000
   0.00000000   0.00000000   0.00000000   0.16009000
   0.00000000   0.00000000   0.00000000   0.10592000
* f-type functions
    4    2
         20.88950000
          7.21765000
          2.56930000
          0.86394000
   0.03751000   0.00000000
   0.14953000   0.00000000
   0.00000000   0.29045000
   0.00000000   0.25202000

/Se.Sadlej_pVTZ.Sadlej.15s12p9d4f.9s7p4d2f.
A.J. Sadlej. Theor. Chim. Acta 81 (1991) 45-63. doi:10.1007/bf01113377
SELENIUM (15s,12p,9d,4f) -> [9s,7p,4d,2f]
    34.0   3
* s-type functions
   15    9
     373064.50000000
      55085.14000000
      12592.85000000
       3699.05900000
       1277.82000000
        486.70470000
        198.68060000
         86.13051000
         30.72411000
         13.32537000
          4.10320300
          1.76013100
          0.35289600
          0.13156800
          0.04905200
   0.00036450   0.00011440   0.00004490   0.00001310   0.00000000   0.00000000   0.00000000   0.00000000   0.00000000
   0.00287240   0.00089770   0.00035440   0.00010340   0.00000000   0.00000000   0.00000000   0.00000000   0.00000000
   0.01446450   0.00459800   0.00180410   0.00052690   0.00000000   0.00000000   0.00000000   0.00000000   0.00000000
   0.05369800   0.01726730   0.00686680   0.00200570   0.00000000   0.00000000   0.00000000   0.00000000   0.00000000
   0.15453090   0.05405530   0.02135820   0.00624930   0.00000000   0.00000000   0.00000000   0.00000000   0.00000000
   0.32971800   0.13079190   0.05389250   0.01580450   0.00000000   0.00000000   0.00000000   0.00000000   0.00000000
   0.40064420   0.23448160   0.09766950   0.02886970   0.00000000   0.00000000   0.00000000   0.00000000   0.00000000
   0.18123540   0.09818410   0.05114420   0.01529590   0.00000000   0.00000000   0.00000000   0.00000000   0.00000000
   0.01295470  -0.54853780  -0.36272380  -0.11361700   0.00000000   0.00000000   0.00000000   0.00000000   0.00000000
  -0.00190210  -0.56842720  -0.49371340  -0.16560010   0.00000000   0.00000000   0.00000000   0.00000000   0.00000000
   0.00000000   0.00000000   0.00000000   0.00000000   1.00000000   0.00000000   0.00000000   0.00000000   0.00000000
   0.00000000   0.00000000   0.00000000   0.00000000   0.00000000   1.00000000   0.00000000   0.00000000   0.00000000
   0.00000000   0.00000000   0.00000000   0.00000000   0.00000000   0.00000000   1.00000000   0.00000000   0.00000000
   0.00000000   0.00000000   0.00000000   0.00000000   0.00000000   0.00000000   0.00000000   1.00000000   0.00000000
   0.00000000   0.00000000   0.00000000   0.00000000   0.00000000   0.00000000   0.00000000   0.00000000   1.00000000
* p-type functions
   12    7
       2975.59400000
        713.71650000
        233.89930000
         89.31284000
         37.33775000
         16.58343000
          7.12515700
          3.10395400
          1.33910100
          0.38754700
          0.11999200
          0.03715200
   0.00247860  -0.00098680   0.00024010   0.00000000   0.00000000   0.00000000   0.00000000
   0.01971020  -0.00788820   0.00189390   0.00000000   0.00000000   0.00000000   0.00000000
   0.09114220  -0.03777380   0.00925170   0.00000000   0.00000000   0.00000000   0.00000000
   0.26582650  -0.11526570   0.02783050   0.00000000   0.00000000   0.00000000   0.00000000
   0.43654490  -0.20667870   0.05223250   0.00000000   0.00000000   0.00000000   0.00000000
   0.31162600  -0.09487900   0.01790790   0.00000000   0.00000000   0.00000000   0.00000000
   0.05960900   0.34642290  -0.09611450   0.00000000   0.00000000   0.00000000   0.00000000
  -0.00028120   0.56116390  -0.20375440   0.00000000   0.00000000   0.00000000   0.00000000
   0.00000000   0.00000000   0.00000000   1.00000000   0.00000000   0.00000000   0.00000000
   0.00000000   0.00000000   0.00000000   0.00000000   1.00000000   0.00000000   0.00000000
   0.00000000   0.00000000   0.00000000   0.00000000   0.00000000   1.00000000   0.00000000
   0.00000000   0.00000000   0.00000000   0.00000000   0.00000000   0.00000000   1.00000000
* d-type functions
    9    4
         78.71959000
         22.53607000
          7.88758700
          2.86378000
          0.99034500
          1.33910000
          0.38755000
          0.11999000
          0.03715000
   0.03273980   0.00000000   0.00000000   0.00000000
   0.17565880   0.00000000   0.00000000   0.00000000
   0.40565710   0.00000000   0.00000000   0.00000000
   0.00000000   0.46256960   0.00000000   0.00000000
   0.00000000   0.21861910   0.00000000   0.00000000
   0.00000000   0.00000000  -0.00820000   0.00000000
   0.00000000   0.00000000   0.81387000   0.00000000
   0.00000000   0.00000000   0.00000000   0.14805000
   0.00000000   0.00000000   0.00000000   0.07972000
* f-type functions
    4    2
         22.53600000
          7.88759000
          2.86378000
          0.99035000
   0.03700000   0.00000000
   0.14444000   0.00000000
   0.00000000   0.27334000
   0.00000000   0.21968000

/Br.Sadlej_pVTZ.Sadlej.15s12p9d4f.9s7p4d2f.
A.J. Sadlej. Theor. Chim. Acta 81 (1991) 45-63. doi:10.1007/bf01113377
BROMINE (15s,12p,9d,4f) -> [9s,7p,4d,2f]
    35.0   3
* s-type functions
   15    9
     379677.70000000
      56125.18000000
      12967.35000000
       3836.08200000
       1331.99600000
        508.04210000
        207.78120000
         90.42185000
         33.00437000
         14.35639000
          4.72852500
          2.03296700
          0.41270600
          0.15614200
          0.05907400
   0.00038420  -0.00012080   0.00004800  -0.00001470   0.00000000   0.00000000   0.00000000   0.00000000   0.00000000
   0.00300030  -0.00094110   0.00037490  -0.00011470   0.00000000   0.00000000   0.00000000   0.00000000   0.00000000
   0.01489070  -0.00474420   0.00188270  -0.00057660   0.00000000   0.00000000   0.00000000   0.00000000   0.00000000
   0.05477460  -0.01770260   0.00709770  -0.00217350   0.00000000   0.00000000   0.00000000   0.00000000   0.00000000
   0.15677150  -0.05499180   0.02201390  -0.00675470   0.00000000   0.00000000   0.00000000   0.00000000   0.00000000
   0.33280990  -0.13338940   0.05533690  -0.01701640   0.00000000   0.00000000   0.00000000   0.00000000   0.00000000
   0.39856780  -0.23451110   0.09950580  -0.03086650   0.00000000   0.00000000   0.00000000   0.00000000   0.00000000
   0.17653680  -0.09721030   0.04981420  -0.01561800   0.00000000   0.00000000   0.00000000   0.00000000   0.00000000
   0.01249060   0.54259170  -0.35744090   0.11757500   0.00000000   0.00000000   0.00000000   0.00000000   0.00000000
  -0.00172190   0.57185840  -0.51718760   0.18286250   0.00000000   0.00000000   0.00000000   0.00000000   0.00000000
   0.00000000   0.00000000   0.00000000   0.00000000   1.00000000   0.00000000   0.00000000   0.00000000   0.00000000
   0.00000000   0.00000000   0.00000000   0.00000000   0.00000000   1.00000000   0.00000000   0.00000000   0.00000000
   0.00000000   0.00000000   0.00000000   0.00000000   0.00000000   0.00000000   1.00000000   0.00000000   0.00000000
   0.00000000   0.00000000   0.00000000   0.00000000   0.00000000   0.00000000   0.00000000   1.00000000   0.00000000
   0.00000000   0.00000000   0.00000000   0.00000000   0.00000000   0.00000000   0.00000000   0.00000000   1.00000000
* p-type functions
   12    7
       3167.91000000
        762.50440000
        249.39630000
         95.23177000
         39.92301000
         17.78166000
          7.67726400
          3.34206400
          1.44242200
          0.44232000
          0.13777200
          0.04291300
   0.00246430  -0.00099400   0.00025880   0.00000000   0.00000000   0.00000000   0.00000000
   0.01959070  -0.00795010   0.00204380   0.00000000   0.00000000   0.00000000   0.00000000
   0.09116940  -0.03828910   0.01003860   0.00000000   0.00000000   0.00000000   0.00000000
   0.26560200  -0.11691170   0.03024520   0.00000000   0.00000000   0.00000000   0.00000000
   0.43554300  -0.20901610   0.05658970   0.00000000   0.00000000   0.00000000   0.00000000
   0.31177610  -0.09683760   0.01958550   0.00000000   0.00000000   0.00000000   0.00000000
   0.06020910   0.35122830  -0.10565350   0.00000000   0.00000000   0.00000000   0.00000000
  -0.00199290   0.56985370  -0.22549650   0.00000000   0.00000000   0.00000000   0.00000000
   0.00000000   0.00000000   0.00000000   1.00000000   0.00000000   0.00000000   0.00000000
   0.00000000   0.00000000   0.00000000   0.00000000   1.00000000   0.00000000   0.00000000
   0.00000000   0.00000000   0.00000000   0.00000000   0.00000000   1.00000000   0.00000000
   0.00000000   0.00000000   0.00000000   0.00000000   0.00000000   0.00000000   1.00000000
* d-type functions
    9    4
         96.15001000
         27.83908000
          9.85106700
          3.61018700
          1.25154400
          1.44240000
          0.44230000
          0.13780000
          0.04290000
   0.02651280   0.00000000   0.00000000   0.00000000
   0.15006420   0.00000000   0.00000000   0.00000000
   0.38048960   0.00000000   0.00000000   0.00000000
   0.00000000   0.48027720   0.00000000   0.00000000
   0.00000000   0.24788540   0.00000000   0.00000000
   0.00000000   0.00000000   0.00395000   0.00000000
   0.00000000   0.00000000   0.80388000   0.00000000
   0.00000000   0.00000000   0.00000000   0.13480000
   0.00000000   0.00000000   0.00000000   0.06231000
* f-type functions
    4    2
         27.83910000
          9.85107000
          3.61019000
          1.25154000
   0.02844100   0.00000000
   0.12122800   0.00000000
   0.00000000   0.25277100
   0.00000000   0.22157900

/Rb.Sadlej_pVTZ.Sadlej.18s15p10d.11s9p4d.
A.J. Sadlej, M. Urban. J. Mol. Struct. THEOCHEM 234 (1991) 147-171. doi:10.1016/0166-1280(91)89010-x
RUBIDIUM (18s,15p,10d) -> [11s,9p,4d]
    37.0   2
* s-type functions
   18   11
     432918.40000000
      65814.05000000
      15362.04000000
       4506.95000000
       1533.26200000
        581.09600000
        240.21680000
        106.11120000
         40.82235000
         18.69521000
          7.85089400
          3.94615000
          1.84403900
          0.69217200
          0.27676700
          0.03889000
          0.01963200
          0.00991000
   0.00037020  -0.00011700   0.00004740   0.00001600   0.00000000   0.00000000   0.00000000   0.00000000   0.00000000   0.00000000   0.00000000
   0.00279580  -0.00088250   0.00035770   0.00012080   0.00000000   0.00000000   0.00000000   0.00000000   0.00000000   0.00000000   0.00000000
   0.01385200  -0.00442590   0.00179340   0.00060530   0.00000000   0.00000000   0.00000000   0.00000000   0.00000000   0.00000000   0.00000000
   0.05253920  -0.01709230   0.00695990   0.00235420   0.00000000   0.00000000   0.00000000   0.00000000   0.00000000   0.00000000   0.00000000
   0.15484700  -0.05424870   0.02222370   0.00750950   0.00000000   0.00000000   0.00000000   0.00000000   0.00000000   0.00000000   0.00000000
   0.32664490  -0.13182170   0.05535600   0.01883560   0.00000000   0.00000000   0.00000000   0.00000000   0.00000000   0.00000000   0.00000000
   0.39424630  -0.22703110   0.09919630   0.03379590   0.00000000   0.00000000   0.00000000   0.00000000   0.00000000   0.00000000   0.00000000
   0.18840790  -0.12106900   0.05908320   0.02088110   0.00000000   0.00000000   0.00000000   0.00000000   0.00000000   0.00000000   0.00000000
   0.01691090   0.45008930  -0.28498790  -0.10455660   0.00000000   0.00000000   0.00000000   0.00000000   0.00000000   0.00000000   0.00000000
  -0.00277380   0.60674180  -0.56166080  -0.21509890   0.00000000   0.00000000   0.00000000   0.00000000   0.00000000   0.00000000   0.00000000
   0.00154220   0.13097090   0.06893800   0.02617940   0.00000000   0.00000000   0.00000000   0.00000000   0.00000000   0.00000000   0.00000000
   0.00000000   0.00000000   0.00000000   0.00000000   1.00000000   0.00000000   0.00000000   0.00000000   0.00000000   0.00000000   0.00000000
   0.00000000   0.00000000   0.00000000   0.00000000   0.00000000   1.00000000   0.00000000   0.00000000   0.00000000   0.00000000   0.00000000
   0.00000000   0.00000000   0.00000000   0.00000000   0.00000000   0.00000000   1.00000000   0.00000000   0.00000000   0.00000000   0.00000000
   0.00000000   0.00000000   0.00000000   0.00000000   0.00000000   0.00000000   0.00000000   1.00000000   0.00000000   0.00000000   0.00000000
   0.00000000   0.00000000   0.00000000   0.00000000   0.00000000   0.00000000   0.00000000   0.00000000   1.00000000   0.00000000   0.00000000
   0.00000000   0.00000000   0.00000000   0.00000000   0.00000000   0.00000000   0.00000000   0.00000000   0.00000000   1.00000000   0.00000000
   0.00000000   0.00000000   0.00000000   0.00000000   0.00000000   0.00000000   0.00000000   0.00000000   0.00000000   0.00000000   1.00000000
* p-type functions
   15    9
       3772.36000000
        896.84980000
        291.17740000
        111.16650000
         46.59779000
         20.61947000
          8.54580300
          3.72780700
          1.62608800
          0.60815400
          0.21125700
          0.07338500
          0.02549200
          0.00885500
          0.00308000
   0.00224900  -0.00093260  -0.00027990   0.00000000   0.00000000   0.00000000   0.00000000   0.00000000   0.00000000
   0.01841780  -0.00764860  -0.00228370   0.00000000   0.00000000   0.00000000   0.00000000   0.00000000   0.00000000
   0.08705500  -0.03758360  -0.01135210   0.00000000   0.00000000   0.00000000   0.00000000   0.00000000   0.00000000
   0.25735740  -0.11573930  -0.03489420   0.00000000   0.00000000   0.00000000   0.00000000   0.00000000   0.00000000
   0.43451480  -0.21569860  -0.06690170   0.00000000   0.00000000   0.00000000   0.00000000   0.00000000   0.00000000
   0.32479400  -0.10128430  -0.02586680   0.00000000   0.00000000   0.00000000   0.00000000   0.00000000   0.00000000
   0.06296000   0.38339830   0.14412410   0.00000000   0.00000000   0.00000000   0.00000000   0.00000000   0.00000000
  -0.00301060   0.57238880   0.25911670   0.00000000   0.00000000   0.00000000   0.00000000   0.00000000   0.00000000
   0.00227040   0.18499650  -0.02242420   0.00000000   0.00000000   0.00000000   0.00000000   0.00000000   0.00000000
   0.00000000   0.00000000   0.00000000   1.00000000   0.00000000   0.00000000   0.00000000   0.00000000   0.00000000
   0.00000000   0.00000000   0.00000000   0.00000000   1.00000000   0.00000000   0.00000000   0.00000000   0.00000000
   0.00000000   0.00000000   0.00000000   0.00000000   0.00000000   1.00000000   0.00000000   0.00000000   0.00000000
   0.00000000   0.00000000   0.00000000   0.00000000   0.00000000   0.00000000   1.00000000   0.00000000   0.00000000
   0.00000000   0.00000000   0.00000000   0.00000000   0.00000000   0.00000000   0.00000000   1.00000000   0.00000000
   0.00000000   0.00000000   0.00000000   0.00000000   0.00000000   0.00000000   0.00000000   0.00000000   1.00000000
* d-type functions
   10    4
        132.33260000
         38.80142000
         14.10538000
          5.53661600
          2.23966800
          0.85943200
          0.60815000
          0.21126000
          0.02549000
          0.00886000
   0.01956850   0.00000000   0.00000000   0.00000000
   0.11893780   0.00000000   0.00000000   0.00000000
   0.32958700   0.00000000   0.00000000   0.00000000
   0.45462320   0.00000000   0.00000000   0.00000000
   0.00000000   0.29737770   0.00000000   0.00000000
   0.00000000   0.05918200   0.00000000   0.00000000
   0.00000000   0.00000000   0.08031000   0.00000000
   0.00000000   0.00000000   0.10313000   0.00000000
   0.00000000   0.00000000   0.00000000   0.44488000
   0.00000000   0.00000000   0.00000000   0.37698000

/Sr.Sadlej_pVTZ.Sadlej.18s15p10d.11s9p4d.
A.J. Sadlej, M. Urban. J. Mol. Struct. THEOCHEM 234 (1991) 147-171. doi:10.1016/0166-1280(91)89010-x
STRONTIUM (18s,15p,10d) -> [11s,9p,4d]
    38.0   2
* s-type functions
   18   11
     447503.80000000
      68033.85000000
      15907.65000000
       4680.18100000
       1596.10800000
        605.02680000
        249.66550000
        110.23710000
         42.34581000
         19.32749000
          7.94375200
          3.99792700
          1.93331400
          0.71633500
          0.30581700
          0.05487500
          0.02294400
          0.00959300
   0.00037980  -0.00012030  -0.00004910   0.00001740   0.00000000   0.00000000   0.00000000   0.00000000   0.00000000   0.00000000   0.00000000
   0.00286610  -0.00090690  -0.00037080   0.00013180   0.00000000   0.00000000   0.00000000   0.00000000   0.00000000   0.00000000   0.00000000
   0.01414740  -0.00453340  -0.00185360   0.00065780   0.00000000   0.00000000   0.00000000   0.00000000   0.00000000   0.00000000   0.00000000
   0.05338980  -0.01741690  -0.00715570   0.00254670   0.00000000   0.00000000   0.00000000   0.00000000   0.00000000   0.00000000   0.00000000
   0.15677030  -0.05516680  -0.02281190   0.00810370   0.00000000   0.00000000   0.00000000   0.00000000   0.00000000   0.00000000   0.00000000
   0.33004550  -0.13393850  -0.05678060   0.02034300   0.00000000   0.00000000   0.00000000   0.00000000   0.00000000   0.00000000   0.00000000
   0.39426210  -0.22989190  -0.10157800   0.03636980   0.00000000   0.00000000   0.00000000   0.00000000   0.00000000   0.00000000   0.00000000
   0.18288270  -0.11405300  -0.05636820   0.02115380   0.00000000   0.00000000   0.00000000   0.00000000   0.00000000   0.00000000   0.00000000
   0.01568870   0.46964200   0.30364050  -0.11807470   0.00000000   0.00000000   0.00000000   0.00000000   0.00000000   0.00000000   0.00000000
  -0.00261670   0.59824300   0.56731990   0.22897930   0.00000000   0.00000000   0.00000000   0.00000000   0.00000000   0.00000000   0.00000000
   0.00148320   0.12031880  -0.13577640   0.05482200   0.00000000   0.00000000   0.00000000   0.00000000   0.00000000   0.00000000   0.00000000
   0.00000000   0.00000000   0.00000000   0.00000000   1.00000000   0.00000000   0.00000000   0.00000000   0.00000000   0.00000000   0.00000000
   0.00000000   0.00000000   0.00000000   0.00000000   0.00000000   1.00000000   0.00000000   0.00000000   0.00000000   0.00000000   0.00000000
   0.00000000   0.00000000   0.00000000   0.00000000   0.00000000   0.00000000   1.00000000   0.00000000   0.00000000   0.00000000   0.00000000
   0.00000000   0.00000000   0.00000000   0.00000000   0.00000000   0.00000000   0.00000000   1.00000000   0.00000000   0.00000000   0.00000000
   0.00000000   0.00000000   0.00000000   0.00000000   0.00000000   0.00000000   0.00000000   0.00000000   1.00000000   0.00000000   0.00000000
   0.00000000   0.00000000   0.00000000   0.00000000   0.00000000   0.00000000   0.00000000   0.00000000   0.00000000   1.00000000   0.00000000
   0.00000000   0.00000000   0.00000000   0.00000000   0.00000000   0.00000000   0.00000000   0.00000000   0.00000000   0.00000000   1.00000000
* p-type functions
   15    9
       3942.23500000
        935.36130000
        303.60260000
        115.89080000
         48.56029000
         21.49991000
          8.94698400
          3.86965000
          1.61773200
          0.64198300
          0.23849500
          0.08876700
          0.03303900
          0.01229700
          0.00457700
   0.00230060   0.00096470  -0.00031110   0.00000000   0.00000000   0.00000000   0.00000000   0.00000000   0.00000000
   0.01887990   0.00793810  -0.00254770   0.00000000   0.00000000   0.00000000   0.00000000   0.00000000   0.00000000
   0.08905800   0.03891590  -0.01263310   0.00000000   0.00000000   0.00000000   0.00000000   0.00000000   0.00000000
   0.26221620   0.11963390  -0.03880580   0.00000000   0.00000000   0.00000000   0.00000000   0.00000000   0.00000000
   0.43752720   0.22008900  -0.07343700   0.00000000   0.00000000   0.00000000   0.00000000   0.00000000   0.00000000
   0.31769830   0.09481260  -0.02521190   0.00000000   0.00000000   0.00000000   0.00000000   0.00000000   0.00000000
   0.05894890  -0.40425900   0.16581460   0.00000000   0.00000000   0.00000000   0.00000000   0.00000000   0.00000000
  -0.00251450  -0.58060630   0.28752600   0.00000000   0.00000000   0.00000000   0.00000000   0.00000000   0.00000000
   0.00198100  -0.15882060  -0.08079170   0.00000000   0.00000000   0.00000000   0.00000000   0.00000000   0.00000000
   0.00000000   0.00000000   0.00000000   1.00000000   0.00000000   0.00000000   0.00000000   0.00000000   0.00000000
   0.00000000   0.00000000   0.00000000   0.00000000   1.00000000   0.00000000   0.00000000   0.00000000   0.00000000
   0.00000000   0.00000000   0.00000000   0.00000000   0.00000000   1.00000000   0.00000000   0.00000000   0.00000000
   0.00000000   0.00000000   0.00000000   0.00000000   0.00000000   0.00000000   1.00000000   0.00000000   0.00000000
   0.00000000   0.00000000   0.00000000   0.00000000   0.00000000   0.00000000   0.00000000   1.00000000   0.00000000
   0.00000000   0.00000000   0.00000000   0.00000000   0.00000000   0.00000000   0.00000000   0.00000000   1.00000000
* d-type functions
   10    4
        137.77420000
         40.44428000
         14.68809000
          5.75212900
          2.32495500
          0.88911100
          0.64198000
          0.23850000
          0.03304000
          0.01230000
   0.02082950   0.00000000   0.00000000   0.00000000
   0.12589180   0.00000000   0.00000000   0.00000000
   0.34435740   0.00000000   0.00000000   0.00000000
   0.46147100   0.00000000   0.00000000   0.00000000
   0.00000000   0.27626760   0.00000000   0.00000000
   0.00000000   0.04438420   0.00000000   0.00000000
   0.00000000   0.00000000   0.83492000   0.00000000
   0.00000000   0.00000000   0.80831000   0.00000000
   0.00000000   0.00000000   0.00000000   0.39400000
   0.00000000   0.00000000   0.00000000   0.11109000

/Sn.Sadlej_pVTZ.Sadlej.19s15p12d4f.11s9p6d2f.
A.J. Sadlej. Theor. Chim. Acta 81 (1992) 339-354. doi:10.1007/bf01118573
TIN (19s,15p,12d,4f) -> [11s,9p,6d,2f]
    50.0   3
* s-type functions
   19   11
     899821.66000000
     134984.99000000
      30894.68700000
       8884.58990000
       2970.83160000
       1114.39890000
        457.49766000
        201.14673000
         76.95188800
         34.62703300
         12.70952100
          6.74459220
          2.85895840
          1.46495530
          0.54825450
          0.49708680
          0.16120890
          0.06806320
          0.02873700
   0.00031710  -0.00010270   0.00004510  -0.00001960  -0.00000570   0.00000000   0.00000000   0.00000000   0.00000000   0.00000000   0.00000000
   0.00245420  -0.00079400   0.00034980  -0.00015190  -0.00004440   0.00000000   0.00000000   0.00000000   0.00000000   0.00000000   0.00000000
   0.01253080  -0.00410120   0.00180340  -0.00078320  -0.00022890   0.00000000   0.00000000   0.00000000   0.00000000   0.00000000   0.00000000
   0.04903440  -0.01632410   0.00723000  -0.00314310  -0.00091830   0.00000000   0.00000000   0.00000000   0.00000000   0.00000000   0.00000000
   0.14833260  -0.05308490   0.02359200  -0.01027030  -0.00300360   0.00000000   0.00000000   0.00000000   0.00000000   0.00000000   0.00000000
   0.32052790  -0.13183630   0.06041480  -0.02643820  -0.00773090   0.00000000   0.00000000   0.00000000   0.00000000   0.00000000   0.00000000
   0.39997310  -0.23358350   0.11086690  -0.04895430  -0.01436450   0.00000000   0.00000000   0.00000000   0.00000000   0.00000000   0.00000000
   0.19888440  -0.13246890   0.07241480  -0.03277900  -0.00960640   0.00000000   0.00000000   0.00000000   0.00000000   0.00000000   0.00000000
   0.01790620   0.47451370  -0.34746490   0.16695110   0.04953910   0.00000000   0.00000000   0.00000000   0.00000000   0.00000000   0.00000000
  -0.00288640   0.62143010  -0.63428730   0.33388540   0.10145650   0.00000000   0.00000000   0.00000000   0.00000000   0.00000000   0.00000000
   0.00168150   0.11211860   0.37780880  -0.26767190  -0.08720590   0.00000000   0.00000000   0.00000000   0.00000000   0.00000000   0.00000000
  -0.00143660  -0.02974940   0.82054020  -0.89363900  -0.30685720   0.00000000   0.00000000   0.00000000   0.00000000   0.00000000   0.00000000
   0.00096460   0.01441620   0.15693320   0.12525240   0.06847180   0.00000000   0.00000000   0.00000000   0.00000000   0.00000000   0.00000000
   0.00000000   0.00000000   0.00000000   0.00000000   0.00000000   1.00000000   0.00000000   0.00000000   0.00000000   0.00000000   0.00000000
   0.00000000   0.00000000   0.00000000   0.00000000   0.00000000   0.00000000   1.00000000   0.00000000   0.00000000   0.00000000   0.00000000
   0.00000000   0.00000000   0.00000000   0.00000000   0.00000000   0.00000000   0.00000000   1.00000000   0.00000000   0.00000000   0.00000000
   0.00000000   0.00000000   0.00000000   0.00000000   0.00000000   0.00000000   0.00000000   0.00000000   1.00000000   0.00000000   0.00000000
   0.00000000   0.00000000   0.00000000   0.00000000   0.00000000   0.00000000   0.00000000   0.00000000   0.00000000   1.00000000   0.00000000
   0.00000000   0.00000000   0.00000000   0.00000000   0.00000000   0.00000000   0.00000000   0.00000000   0.00000000   0.00000000   1.00000000
* p-type functions
   15    9
       6555.36050000
       1572.55540000
        518.87112000
        201.79386000
         87.86050100
         40.76538100
         18.52232700
          8.99009520
          4.39418550
          2.16105100
          1.01680610
          0.44157980
          0.16505880
          0.05896050
          0.02106100
   0.00257810   0.00118670   0.00049450  -0.00011490   0.00000000   0.00000000   0.00000000   0.00000000   0.00000000
   0.02053420   0.00952790   0.00397330  -0.00092220   0.00000000   0.00000000   0.00000000   0.00000000   0.00000000
   0.09474030   0.04566490   0.01919610  -0.00446780   0.00000000   0.00000000   0.00000000   0.00000000   0.00000000
   0.26728220   0.13599940   0.05773000  -0.01342760   0.00000000   0.00000000   0.00000000   0.00000000   0.00000000
   0.42143960   0.23496560   0.10192750  -0.02387070   0.00000000   0.00000000   0.00000000   0.00000000   0.00000000
   0.30776760   0.10513000   0.03731970  -0.00825840   0.00000000   0.00000000   0.00000000   0.00000000   0.00000000
   0.06661560  -0.37510550  -0.22231050   0.05382590   0.00000000   0.00000000   0.00000000   0.00000000   0.00000000
  -0.00155740  -0.56501530  -0.38481780   0.09742600   0.00000000   0.00000000   0.00000000   0.00000000   0.00000000
   0.00187940  -0.19154810   0.05818700  -0.02928630   0.00000000   0.00000000   0.00000000   0.00000000   0.00000000
  -0.00103830  -0.01068830   0.58766850  -0.17325360   0.00000000   0.00000000   0.00000000   0.00000000   0.00000000
   0.00000000   0.00000000   0.00000000   0.00000000   1.00000000   0.00000000   0.00000000   0.00000000   0.00000000
   0.00000000   0.00000000   0.00000000   0.00000000   0.00000000   1.00000000   0.00000000   0.00000000   0.00000000
   0.00000000   0.00000000   0.00000000   0.00000000   0.00000000   0.00000000   1.00000000   0.00000000   0.00000000
   0.00000000   0.00000000   0.00000000   0.00000000   0.00000000   0.00000000   0.00000000   1.00000000   0.00000000
   0.00000000   0.00000000   0.00000000   0.00000000   0.00000000   0.00000000   0.00000000   0.00000000   1.00000000
* d-type functions
   12    6
        313.59189000
         93.02992900
         34.69920900
         14.30871200
          6.28011240
          2.77694490
          1.15344750
          0.42869930
          0.44158000
          0.16506000
          0.05896050
          0.02106100
   0.01681370   0.00629950   0.00000000   0.00000000   0.00000000   0.00000000
   0.11190630   0.04292470   0.00000000   0.00000000   0.00000000   0.00000000
   0.33390190   0.12876880   0.00000000   0.00000000   0.00000000   0.00000000
   0.47216590   0.17191420   0.00000000   0.00000000   0.00000000   0.00000000
   0.00000000   0.00000000   0.26179130   0.02602300   0.00000000   0.00000000
   0.00000000   0.00000000   0.03675960   0.40470280   0.00000000   0.00000000
   0.00000000   0.00000000   0.00129990   0.50880440   0.00000000   0.00000000
   0.00000000   0.00000000  -0.00015410   0.22942490   0.00000000   0.00000000
   0.00000000   0.00000000   0.00000000   0.00000000   0.12519000   0.00000000
   0.00000000   0.00000000   0.00000000   0.00000000   1.15562000   0.00000000
   0.00000000   0.00000000   0.00000000   0.00000000   0.00000000   0.19425000
   0.00000000   0.00000000   0.00000000   0.00000000   0.00000000   0.12250000
* f-type functions
    4    2
          6.28011000
          2.77694000
          1.15345000
          0.42870000
   0.01038000   0.00000000
   0.24286000   0.00000000
   0.00000000   0.47375000
   0.00000000   0.35040000

/Sb.Sadlej_pVTZ.Sadlej.19s15p12d4f.11s9p6d2f.
A.J. Sadlej. Theor. Chim. Acta 81 (1992) 339-354. doi:10.1007/bf01118573
ANTIMONY (19s,15p,12d,4f) -> [11s,9p,6d,2f]
    51.0   3
* s-type functions
   19   11
     937375.11000000
     141220.76000000
      32433.01200000
       9334.55940000
       3122.30220000
       1169.72780000
        479.56797000
        210.71500000
         80.25407600
         36.18774200
         13.16412900
          6.88953120
          2.79773510
          1.46067310
          0.65144490
          0.45793820
          0.18062660
          0.07832070
          0.03396000
  -0.00031630   0.00010260  -0.00004530   0.00001990   0.00000620   0.00000000   0.00000000   0.00000000   0.00000000   0.00000000   0.00000000
  -0.00243070   0.00078730  -0.00034830   0.00015330   0.00004760   0.00000000   0.00000000   0.00000000   0.00000000   0.00000000   0.00000000
  -0.01238090   0.00405850  -0.00179270   0.00078910   0.00024500   0.00000000   0.00000000   0.00000000   0.00000000   0.00000000   0.00000000
  -0.04845250   0.01614430  -0.00718060   0.00316190   0.00098130   0.00000000   0.00000000   0.00000000   0.00000000   0.00000000   0.00000000
  -0.14689090   0.05262070  -0.02349310   0.01036820   0.00322210   0.00000000   0.00000000   0.00000000   0.00000000   0.00000000   0.00000000
  -0.31924450   0.13118560  -0.06035300   0.02674240   0.00830570   0.00000000   0.00000000   0.00000000   0.00000000   0.00000000   0.00000000
  -0.40071040   0.23388060  -0.11156740   0.04999460   0.01559530   0.00000000   0.00000000   0.00000000   0.00000000   0.00000000   0.00000000
  -0.20122770   0.13404010  -0.07336130   0.03348580   0.01040840   0.00000000   0.00000000   0.00000000   0.00000000   0.00000000   0.00000000
  -0.01838610  -0.47348770   0.34870650  -0.16949170  -0.05341330   0.00000000   0.00000000   0.00000000   0.00000000   0.00000000   0.00000000
   0.00304230  -0.62257440   0.63952800  -0.34360740  -0.11130600   0.00000000   0.00000000   0.00000000   0.00000000   0.00000000   0.00000000
  -0.00171350  -0.11288030  -0.40863830   0.30527060   0.10694840   0.00000000   0.00000000   0.00000000   0.00000000   0.00000000   0.00000000
   0.00143700   0.03124860  -0.81806230   0.90946800   0.33334890   0.00000000   0.00000000   0.00000000   0.00000000   0.00000000   0.00000000
  -0.00104300  -0.01672450  -0.13291010  -0.26156420  -0.13295710   0.00000000   0.00000000   0.00000000   0.00000000   0.00000000   0.00000000
   0.00000000   0.00000000   0.00000000   0.00000000   0.00000000   1.00000000   0.00000000   0.00000000   0.00000000   0.00000000   0.00000000
   0.00000000   0.00000000   0.00000000   0.00000000   0.00000000   0.00000000   1.00000000   0.00000000   0.00000000   0.00000000   0.00000000
   0.00000000   0.00000000   0.00000000   0.00000000   0.00000000   0.00000000   0.00000000   1.00000000   0.00000000   0.00000000   0.00000000
   0.00000000   0.00000000   0.00000000   0.00000000   0.00000000   0.00000000   0.00000000   0.00000000   1.00000000   0.00000000   0.00000000
   0.00000000   0.00000000   0.00000000   0.00000000   0.00000000   0.00000000   0.00000000   0.00000000   0.00000000   1.00000000   0.00000000
   0.00000000   0.00000000   0.00000000   0.00000000   0.00000000   0.00000000   0.00000000   0.00000000   0.00000000   0.00000000   1.00000000
* p-type functions
   15    9
       6754.93290000
       1629.81640000
        541.11515000
        211.37093000
         92.39882400
         43.03564300
         19.78081000
          9.62019930
          4.70167320
          2.33397680
          1.09997640
          0.46236620
          0.18517350
          0.06877460
          0.02554300
   0.00262210  -0.00121310  -0.00051390   0.00013280   0.00000000   0.00000000   0.00000000   0.00000000   0.00000000
   0.02061430  -0.00962380  -0.00408200   0.00105400   0.00000000   0.00000000   0.00000000   0.00000000   0.00000000
   0.09427720  -0.04567510  -0.01952140   0.00505160   0.00000000   0.00000000   0.00000000   0.00000000   0.00000000
   0.26515910  -0.13580770  -0.05866170   0.01518410   0.00000000   0.00000000   0.00000000   0.00000000   0.00000000
   0.41903450  -0.23452230  -0.10342380   0.02692170   0.00000000   0.00000000   0.00000000   0.00000000   0.00000000
   0.30950540  -0.11085880  -0.04097520   0.01019370   0.00000000   0.00000000   0.00000000   0.00000000   0.00000000
   0.06883570   0.36404950   0.22090340  -0.05989060   0.00000000   0.00000000   0.00000000   0.00000000   0.00000000
  -0.00076170   0.57130130   0.39542660  -0.11129420   0.00000000   0.00000000   0.00000000   0.00000000   0.00000000
   0.00155670   0.19811360  -0.04843940   0.02946630   0.00000000   0.00000000   0.00000000   0.00000000   0.00000000
  -0.00086890   0.01122150  -0.59493100   0.20106530   0.00000000   0.00000000   0.00000000   0.00000000   0.00000000
   0.00000000   0.00000000   0.00000000   0.00000000   1.00000000   0.00000000   0.00000000   0.00000000   0.00000000
   0.00000000   0.00000000   0.00000000   0.00000000   0.00000000   1.00000000   0.00000000   0.00000000   0.00000000
   0.00000000   0.00000000   0.00000000   0.00000000   0.00000000   0.00000000   1.00000000   0.00000000   0.00000000
   0.00000000   0.00000000   0.00000000   0.00000000   0.00000000   0.00000000   0.00000000   1.00000000   0.00000000
   0.00000000   0.00000000   0.00000000   0.00000000   0.00000000   0.00000000   0.00000000   0.00000000   1.00000000
* d-type functions
   12    6
        331.88981000
         98.36664200
         36.79875800
         15.34043600
          6.83812050
          3.06084890
          1.29516710
          0.49325480
          0.46236600
          0.18517400
          0.06877500
          0.02554300
  -0.01656190  -0.00643750   0.00000000   0.00000000   0.00000000   0.00000000
  -0.11113840  -0.04423830   0.00000000   0.00000000   0.00000000   0.00000000
  -0.33081900  -0.13250550   0.00000000   0.00000000   0.00000000   0.00000000
  -0.46649390  -0.17680390   0.00000000   0.00000000   0.00000000   0.00000000
   0.00000000   0.00000000  -0.26579700   0.01996420   0.00000000   0.00000000
   0.00000000   0.00000000  -0.04083440   0.40476200   0.00000000   0.00000000
   0.00000000   0.00000000  -0.00113710   0.51326610   0.00000000   0.00000000
   0.00000000   0.00000000   0.00006890   0.21969040   0.00000000   0.00000000
   0.00000000   0.00000000   0.00000000   0.00000000   0.19784000   0.00000000
   0.00000000   0.00000000   0.00000000   0.00000000   1.18499000   0.00000000
   0.00000000   0.00000000   0.00000000   0.00000000   0.00000000   0.16053000
   0.00000000   0.00000000   0.00000000   0.00000000   0.00000000   0.09176000
* f-type functions
    4    2
          6.83812000
          3.06085000
          1.29517000
          0.49325000
   0.00763500   0.00000000
   0.23135500   0.00000000
   0.00000000   0.45100300
   0.00000000   0.31280600

/Te.Sadlej_pVTZ.Sadlej.19s15p12d4f.11s9p6d2f.
A.J. Sadlej. Theor. Chim. Acta 81 (1992) 339-354. doi:10.1007/bf01118573
TELLURIUM (19s,15p,12d,4f) -> [11s,9p,6d,2f]
    52.0   3
* s-type functions
   19   11
     978822.88000000
     147828.00000000
      34015.46700000
       9798.90160000
       3276.87360000
       1226.40170000
        502.27506000
        220.57164000
         83.66910200
         37.81020500
         13.57492200
          7.29669320
          2.89173260
          1.60438930
          0.78815790
          0.55539140
          0.22125020
          0.09132730
          0.03769790
  -0.00031430   0.00010210  -0.00004530  -0.00002020   0.00000660   0.00000000   0.00000000   0.00000000   0.00000000   0.00000000   0.00000000
  -0.00240700   0.00078060  -0.00034690  -0.00015460   0.00005050   0.00000000   0.00000000   0.00000000   0.00000000   0.00000000   0.00000000
  -0.01223640   0.00401700  -0.00178130  -0.00079400   0.00025940   0.00000000   0.00000000   0.00000000   0.00000000   0.00000000   0.00000000
  -0.04789780   0.01597350  -0.00713720  -0.00318260   0.00103910   0.00000000   0.00000000   0.00000000   0.00000000   0.00000000   0.00000000
  -0.14558610   0.05220060  -0.02339010  -0.01045380   0.00341800   0.00000000   0.00000000   0.00000000   0.00000000   0.00000000   0.00000000
  -0.31786800   0.13052060  -0.06034230  -0.02707700   0.00884660   0.00000000   0.00000000   0.00000000   0.00000000   0.00000000   0.00000000
  -0.40137230   0.23406500  -0.11195950  -0.05081660   0.01668150   0.00000000   0.00000000   0.00000000   0.00000000   0.00000000   0.00000000
  -0.20353520   0.13575210  -0.07496390  -0.03465820   0.01133070   0.00000000   0.00000000   0.00000000   0.00000000   0.00000000   0.00000000
  -0.01893690  -0.47213420   0.35137960   0.17318470  -0.05744380   0.00000000   0.00000000   0.00000000   0.00000000   0.00000000   0.00000000
   0.00327270  -0.62361110   0.63942850   0.34897080  -0.11920710   0.00000000   0.00000000   0.00000000   0.00000000   0.00000000   0.00000000
  -0.00195920  -0.11726710  -0.41225020  -0.31796030   0.11832220   0.00000000   0.00000000   0.00000000   0.00000000   0.00000000   0.00000000
   0.00170450   0.03682320  -0.80556170  -0.90513590   0.35004550   0.00000000   0.00000000   0.00000000   0.00000000   0.00000000   0.00000000
  -0.00140900  -0.02229320  -0.15830940   0.24075110  -0.13128310   0.00000000   0.00000000   0.00000000   0.00000000   0.00000000   0.00000000
   0.00000000   0.00000000   0.00000000   0.00000000   0.00000000   1.00000000   0.00000000   0.00000000   0.00000000   0.00000000   0.00000000
   0.00000000   0.00000000   0.00000000   0.00000000   0.00000000   0.00000000   1.00000000   0.00000000   0.00000000   0.00000000   0.00000000
   0.00000000   0.00000000   0.00000000   0.00000000   0.00000000   0.00000000   0.00000000   1.00000000   0.00000000   0.00000000   0.00000000
   0.00000000   0.00000000   0.00000000   0.00000000   0.00000000   0.00000000   0.00000000   0.00000000   1.00000000   0.00000000   0.00000000
   0.00000000   0.00000000   0.00000000   0.00000000   0.00000000   0.00000000   0.00000000   0.00000000   0.00000000   1.00000000   0.00000000
   0.00000000   0.00000000   0.00000000   0.00000000   0.00000000   0.00000000   0.00000000   0.00000000   0.00000000   0.00000000   1.00000000
* p-type functions
   15    9
       7003.15560000
       1694.69250000
        564.80973000
        220.99327000
         96.94284100
         45.22420500
         21.03860400
         10.21435500
          4.94274690
          2.48138170
          1.19215370
          0.51952310
          0.21679870
          0.08025220
          0.02970690
   0.00264120   0.00122790  -0.00052820  -0.00014800   0.00000000   0.00000000   0.00000000   0.00000000   0.00000000
   0.02058370   0.00966590  -0.00416520  -0.00116730   0.00000000   0.00000000   0.00000000   0.00000000   0.00000000
   0.09389450   0.04570540  -0.01983920  -0.00556690   0.00000000   0.00000000   0.00000000   0.00000000   0.00000000
   0.26368800   0.13593680  -0.05968120  -0.01677610   0.00000000   0.00000000   0.00000000   0.00000000   0.00000000
   0.41718620   0.23425770  -0.10490860  -0.02959020   0.00000000   0.00000000   0.00000000   0.00000000   0.00000000
   0.31126510   0.11605920  -0.04437060  -0.01213990   0.00000000   0.00000000   0.00000000   0.00000000   0.00000000
   0.06946670  -0.35663030   0.22115560   0.06564780   0.00000000   0.00000000   0.00000000   0.00000000   0.00000000
   0.00077140  -0.57969180   0.40762910   0.12403750   0.00000000   0.00000000   0.00000000   0.00000000   0.00000000
   0.00072360  -0.20125310  -0.05133570  -0.03236100   0.00000000   0.00000000   0.00000000   0.00000000   0.00000000
  -0.00041060  -0.00893920  -0.59987660  -0.22751350   0.00000000   0.00000000   0.00000000   0.00000000   0.00000000
   0.00000000   0.00000000   0.00000000   0.00000000   1.00000000   0.00000000   0.00000000   0.00000000   0.00000000
   0.00000000   0.00000000   0.00000000   0.00000000   0.00000000   1.00000000   0.00000000   0.00000000   0.00000000
   0.00000000   0.00000000   0.00000000   0.00000000   0.00000000   0.00000000   1.00000000   0.00000000   0.00000000
   0.00000000   0.00000000   0.00000000   0.00000000   0.00000000   0.00000000   0.00000000   1.00000000   0.00000000
   0.00000000   0.00000000   0.00000000   0.00000000   0.00000000   0.00000000   0.00000000   0.00000000   1.00000000
* d-type functions
   12    6
        347.73554000
        103.87251000
         39.23849800
         16.48270600
          7.39940440
          3.34930180
          1.44358710
          0.56017090
          0.51952300
          0.21679900
          0.08025200
          0.02970700
   0.01652340   0.00663610   0.00000000   0.00000000   0.00000000   0.00000000
   0.10936310   0.04498610   0.00000000   0.00000000   0.00000000   0.00000000
   0.32491990   0.13461190   0.00000000   0.00000000   0.00000000   0.00000000
   0.46452360   0.18257840   0.00000000   0.00000000   0.00000000   0.00000000
   0.00000000   0.00000000   0.27080940   0.01460960   0.00000000   0.00000000
   0.00000000   0.00000000   0.04367360   0.40441300   0.00000000   0.00000000
   0.00000000   0.00000000   0.00127800   0.51646420   0.00000000   0.00000000
   0.00000000   0.00000000  -0.00007160   0.21235960   0.00000000   0.00000000
   0.00000000   0.00000000   0.00000000   0.00000000   0.21626400   0.00000000
   0.00000000   0.00000000   0.00000000   0.00000000   1.12554800   0.00000000
   0.00000000   0.00000000   0.00000000   0.00000000   0.00000000   0.14747200
   0.00000000   0.00000000   0.00000000   0.00000000   0.00000000   0.07105400
* f-type functions
    4    2
          7.39940400
          3.34930200
          1.44358700
          0.56017100
   0.00537100   0.00000000
   0.22097700   0.00000000
   0.00000000   0.42985200
   0.00000000   0.28373400

/I.Sadlej_pVTZ.Sadlej.19s15p12d4f.11s9p6d2f.
A.J. Sadlej. Theor. Chim. Acta 81 (1992) 339-354. doi:10.1007/bf01118573
IODINE (19s,15p,12d,4f) -> [11s,9p,6d,2f]
    53.0   3
* s-type functions
   19   11
    1024924.80000000
     154843.13000000
      35646.33600000
      10272.63000000
       3434.47690000
       1284.43130000
        525.64189000
        230.74127000
         87.25521700
         39.49446400
         14.25452000
          7.64660890
          3.05005980
          1.73261810
          0.87682360
          0.63499300
          0.25649760
          0.10611690
          0.04390220
  -0.00031120   0.00010120  -0.00004510  -0.00002030   0.00000690   0.00000000   0.00000000   0.00000000   0.00000000   0.00000000   0.00000000
  -0.00238220   0.00077360  -0.00034510  -0.00015560   0.00005290   0.00000000   0.00000000   0.00000000   0.00000000   0.00000000   0.00000000
  -0.01210280   0.00397840  -0.00177150  -0.00079920   0.00027190   0.00000000   0.00000000   0.00000000   0.00000000   0.00000000   0.00000000
  -0.04739060   0.01582010  -0.00709610  -0.00320170   0.00108830   0.00000000   0.00000000   0.00000000   0.00000000   0.00000000   0.00000000
  -0.14435740   0.05179790  -0.02330840  -0.01054490   0.00359000   0.00000000   0.00000000   0.00000000   0.00000000   0.00000000   0.00000000
  -0.31644810   0.12988120  -0.06026250  -0.02735820   0.00930650   0.00000000   0.00000000   0.00000000   0.00000000   0.00000000   0.00000000
  -0.40189880   0.23403130  -0.11246510  -0.05169880   0.01767380   0.00000000   0.00000000   0.00000000   0.00000000   0.00000000   0.00000000
  -0.20585810   0.13785890  -0.07617240  -0.03557510   0.01210960   0.00000000   0.00000000   0.00000000   0.00000000   0.00000000   0.00000000
  -0.01951780  -0.47045900   0.35156800   0.17534850  -0.06059020   0.00000000   0.00000000   0.00000000   0.00000000   0.00000000   0.00000000
   0.00351050  -0.62441440   0.64497580   0.35783470  -0.12752780   0.00000000   0.00000000   0.00000000   0.00000000   0.00000000   0.00000000
  -0.00215030  -0.11868340  -0.41409940  -0.32857720   0.12801440   0.00000000   0.00000000   0.00000000   0.00000000   0.00000000   0.00000000
   0.00190770   0.03771190  -0.80842900  -0.92020060   0.37253770   0.00000000   0.00000000   0.00000000   0.00000000   0.00000000   0.00000000
  -0.00171740  -0.02476350  -0.15597730   0.24782610  -0.13940910   0.00000000   0.00000000   0.00000000   0.00000000   0.00000000   0.00000000
   0.00000000   0.00000000   0.00000000   0.00000000   0.00000000   1.00000000   0.00000000   0.00000000   0.00000000   0.00000000   0.00000000
   0.00000000   0.00000000   0.00000000   0.00000000   0.00000000   0.00000000   1.00000000   0.00000000   0.00000000   0.00000000   0.00000000
   0.00000000   0.00000000   0.00000000   0.00000000   0.00000000   0.00000000   0.00000000   1.00000000   0.00000000   0.00000000   0.00000000
   0.00000000   0.00000000   0.00000000   0.00000000   0.00000000   0.00000000   0.00000000   0.00000000   1.00000000   0.00000000   0.00000000
   0.00000000   0.00000000   0.00000000   0.00000000   0.00000000   0.00000000   0.00000000   0.00000000   0.00000000   1.00000000   0.00000000
   0.00000000   0.00000000   0.00000000   0.00000000   0.00000000   0.00000000   0.00000000   0.00000000   0.00000000   0.00000000   1.00000000
* p-type functions
   15    9
       7299.04100000
       1767.86710000
        590.09433000
        231.49387000
        101.73176000
         47.56911900
         22.27540400
         10.84089700
          5.23794980
          2.54663340
          1.21068480
          0.57440920
          0.24653310
          0.09135320
          0.03385110
   0.00263160   0.00122930   0.00053660   0.00015990   0.00000000   0.00000000   0.00000000   0.00000000   0.00000000
   0.02049250   0.00967380   0.00422850   0.00126120   0.00000000   0.00000000   0.00000000   0.00000000   0.00000000
   0.09320570   0.04558810   0.02008670   0.00599460   0.00000000   0.00000000   0.00000000   0.00000000   0.00000000
   0.26163390   0.13561190   0.06039740   0.01807690   0.00000000   0.00000000   0.00000000   0.00000000   0.00000000
   0.41588470   0.23456620   0.10674460   0.03200640   0.00000000   0.00000000   0.00000000   0.00000000   0.00000000
   0.31281820   0.12012920   0.04674670   0.01372830   0.00000000   0.00000000   0.00000000   0.00000000   0.00000000
   0.07148570  -0.34953750  -0.22011500  -0.07006300   0.00000000   0.00000000   0.00000000   0.00000000   0.00000000
   0.00109600  -0.58376400  -0.42079030  -0.13605430   0.00000000   0.00000000   0.00000000   0.00000000   0.00000000
   0.00063450  -0.20620120   0.06285800   0.03812520   0.00000000   0.00000000   0.00000000   0.00000000   0.00000000
  -0.00038110  -0.85723060   0.64345010   0.27009600   0.00000000   0.00000000   0.00000000   0.00000000   0.00000000
   0.00000000   0.00000000   0.00000000   0.00000000   1.00000000   0.00000000   0.00000000   0.00000000   0.00000000
   0.00000000   0.00000000   0.00000000   0.00000000   0.00000000   1.00000000   0.00000000   0.00000000   0.00000000
   0.00000000   0.00000000   0.00000000   0.00000000   0.00000000   0.00000000   1.00000000   0.00000000   0.00000000
   0.00000000   0.00000000   0.00000000   0.00000000   0.00000000   0.00000000   0.00000000   1.00000000   0.00000000
   0.00000000   0.00000000   0.00000000   0.00000000   0.00000000   0.00000000   0.00000000   0.00000000   1.00000000
* d-type functions
   12    6
        370.37639000
        109.71047000
         41.19921600
         17.28460700
          7.81544150
          3.74281530
          1.65958780
          0.65265910
          0.57440900
          0.24653300
          0.09135300
          0.03385100
   0.01607890   0.00666480   0.00000000   0.00000000   0.00000000   0.00000000
   0.10913290   0.04617800   0.00000000   0.00000000   0.00000000   0.00000000
   0.32774670   0.14050370   0.00000000   0.00000000   0.00000000   0.00000000
   0.46584060   0.18651160   0.00000000   0.00000000   0.00000000   0.00000000
   0.00000000   0.00000000   0.26401570   0.01089200   0.00000000   0.00000000
   0.00000000   0.00000000   0.04389700   0.38274730   0.00000000   0.00000000
   0.00000000   0.00000000   0.00308300   0.52593280   0.00000000   0.00000000
   0.00000000   0.00000000  -0.00042300   0.22223190   0.00000000   0.00000000
   0.00000000   0.00000000   0.00000000   0.00000000   0.24806500   0.00000000
   0.00000000   0.00000000   0.00000000   0.00000000   1.07295300   0.00000000
   0.00000000   0.00000000   0.00000000   0.00000000   0.00000000   0.13663400
   0.00000000   0.00000000   0.00000000   0.00000000   0.00000000   0.05436000
* f-type functions
    4    2
          7.81544200
          3.74281500
          1.65958800
          0.65265900
   0.00389600   0.00000000
   0.19783900   0.00000000
   0.00000000   0.40825400
   0.00000000   0.27508300
