************************************************************************
* This file is part of OpenMolcas.                                     *
*                                                                      *
* OpenMolcas is free software; you can redistribute it and/or modify   *
* it under the terms of the GNU Lesser General Public License, v. 2.1. *
* OpenMolcas is distributed in the hope that it will be useful, but it *
* is provided "as is" and without any express or implied warranties.   *
* For more details see the full text of the license in the file        *
* LICENSE or in <http://www.gnu.org/licenses/>.                        *
************************************************************************

*********************************************************************************************************
*  SARC2-QZVP-DKH  EMSL  Basis Set Exchange Library   5/9/18 9:57 AM                                    *
* ------------------------------------------------------------------------------------------------------*
* Elements:      Ce  Dy  Er  Eu  Gd  Ho  La  Lu  Nd  Pm  Pr  Sm  Tb  Tm  Yb  Lu                         *
* References:                                                                                           *
*                Daniel Aravena, Frank Neese, and Dimitrios A. Pantazis,                                *
*                Improved Segmented All-Electron Relativistically Contracted Basis Sets for the         *
*                Lanthanides,                                                                           *
*                J.Chem.Theory Comput. 12, 1148-1156 (2016).                                            *
* Included in MOLCAS by:                                                                                *
*                Liviu Ungur on 11 May 2018                                                             *
*********************************************************************************************************

/Ce.sarc2-qzvp-dkh.Aravena.23s16p12d7f3g2h.18s12p9d4f3g2h.
Daniel Aravena, Frank Neese, and Dimitrios A. Pantazis, Improved Segmented All-Electron Relativistically
Contracted Basis Sets for the Lanthanides, J.Chem.Theory Comput. 12, 1148-1156 (2016).
********************************************************************************************************
* CERIUM       (23s,16p,12d,7f,3g,2h) -> [18s,12p,9d,4f,3g,2h]
* CERIUM       (23s,16p,12d,7f,3g,2h) -> [18s,12p,9d,4f,3g,2h]
********************************************************************************************************
    58.   5
* S-type functions
    23    18
4164893.9330000 1746533.6972700 732402.7945910 307130.5491350 128794.1210880
54009.3640100 22648.6378115 9497.62701558 3982.79665549 1670.17184113
700.38071742 293.70220312 123.16299118 51.64796939 21.65839524
9.08237226 3.80866103 1.59714867 0.66975871 0.28086097
0.11777807 0.04938982 0.02071145
 0.002015077737 0.0 0.0 0.0 0.0 0.0 0.0 0.0 0.0 0.0 0.0 0.0 0.0 0.0 0.0 0.0 0.0 0.0
-0.000495600013 0.0 0.0 0.0 0.0 0.0 0.0 0.0 0.0 0.0 0.0 0.0 0.0 0.0 0.0 0.0 0.0 0.0
 0.004020003798 0.0 0.0 0.0 0.0 0.0 0.0 0.0 0.0 0.0 0.0 0.0 0.0 0.0 0.0 0.0 0.0 0.0
 0.003065053839 0.0 0.0 0.0 0.0 0.0 0.0 0.0 0.0 0.0 0.0 0.0 0.0 0.0 0.0 0.0 0.0 0.0
 0.009825228787 0.0 0.0 0.0 0.0 0.0 0.0 0.0 0.0 0.0 0.0 0.0 0.0 0.0 0.0 0.0 0.0 0.0
 0.016250559512 0.0 0.0 0.0 0.0 0.0 0.0 0.0 0.0 0.0 0.0 0.0 0.0 0.0 0.0 0.0 0.0 0.0
 0.0000000      1.0 0.0 0.0 0.0 0.0 0.0 0.0 0.0 0.0 0.0 0.0 0.0 0.0 0.0 0.0 0.0 0.0
 0.0000000      0.0 1.0 0.0 0.0 0.0 0.0 0.0 0.0 0.0 0.0 0.0 0.0 0.0 0.0 0.0 0.0 0.0
 0.0000000      0.0 0.0 1.0 0.0 0.0 0.0 0.0 0.0 0.0 0.0 0.0 0.0 0.0 0.0 0.0 0.0 0.0
 0.0000000      0.0 0.0 0.0 1.0 0.0 0.0 0.0 0.0 0.0 0.0 0.0 0.0 0.0 0.0 0.0 0.0 0.0
 0.0000000      0.0 0.0 0.0 0.0 1.0 0.0 0.0 0.0 0.0 0.0 0.0 0.0 0.0 0.0 0.0 0.0 0.0
 0.0000000      0.0 0.0 0.0 0.0 0.0 1.0 0.0 0.0 0.0 0.0 0.0 0.0 0.0 0.0 0.0 0.0 0.0
 0.0000000      0.0 0.0 0.0 0.0 0.0 0.0 1.0 0.0 0.0 0.0 0.0 0.0 0.0 0.0 0.0 0.0 0.0
 0.0000000      0.0 0.0 0.0 0.0 0.0 0.0 0.0 1.0 0.0 0.0 0.0 0.0 0.0 0.0 0.0 0.0 0.0
 0.0000000      0.0 0.0 0.0 0.0 0.0 0.0 0.0 0.0 1.0 0.0 0.0 0.0 0.0 0.0 0.0 0.0 0.0
 0.0000000      0.0 0.0 0.0 0.0 0.0 0.0 0.0 0.0 0.0 1.0 0.0 0.0 0.0 0.0 0.0 0.0 0.0
 0.0000000      0.0 0.0 0.0 0.0 0.0 0.0 0.0 0.0 0.0 0.0 1.0 0.0 0.0 0.0 0.0 0.0 0.0
 0.0000000      0.0 0.0 0.0 0.0 0.0 0.0 0.0 0.0 0.0 0.0 0.0 1.0 0.0 0.0 0.0 0.0 0.0
 0.0000000      0.0 0.0 0.0 0.0 0.0 0.0 0.0 0.0 0.0 0.0 0.0 0.0 1.0 0.0 0.0 0.0 0.0
 0.0000000      0.0 0.0 0.0 0.0 0.0 0.0 0.0 0.0 0.0 0.0 0.0 0.0 0.0 1.0 0.0 0.0 0.0
 0.0000000      0.0 0.0 0.0 0.0 0.0 0.0 0.0 0.0 0.0 0.0 0.0 0.0 0.0 0.0 1.0 0.0 0.0
 0.0000000      0.0 0.0 0.0 0.0 0.0 0.0 0.0 0.0 0.0 0.0 0.0 0.0 0.0 0.0 0.0 1.0 0.0
 0.0000000      0.0 0.0 0.0 0.0 0.0 0.0 0.0 0.0 0.0 0.0 0.0 0.0 0.0 0.0 0.0 0.0 1.0
* P-type functions
    16    12
10250.8572900 4253.73723052 1765.14801781 732.47296576 303.94994649
126.12830001 52.33870986 21.71868288 9.01247255 3.73985209
1.55190416 0.64398443 0.26723039 0.1108910 0.04601578
0.01909489
0.004923026968 0.0 0.0 0.0 0.0 0.0 0.0 0.0 0.0 0.0 0.0 0.0
0.005945698271 0.0 0.0 0.0 0.0 0.0 0.0 0.0 0.0 0.0 0.0 0.0
0.030787824299 0.0 0.0 0.0 0.0 0.0 0.0 0.0 0.0 0.0 0.0 0.0
0.09135466486  0.0 0.0 0.0 0.0 0.0 0.0 0.0 0.0 0.0 0.0 0.0
0.26197771193  0.0 0.0 0.0 0.0 0.0 0.0 0.0 0.0 0.0 0.0 0.0
0.0000000      1.0 0.0 0.0 0.0 0.0 0.0 0.0 0.0 0.0 0.0 0.0
0.0000000      0.0 1.0 0.0 0.0 0.0 0.0 0.0 0.0 0.0 0.0 0.0
0.0000000      0.0 0.0 1.0 0.0 0.0 0.0 0.0 0.0 0.0 0.0 0.0
0.0000000      0.0 0.0 0.0 1.0 0.0 0.0 0.0 0.0 0.0 0.0 0.0
0.0000000      0.0 0.0 0.0 0.0 1.0 0.0 0.0 0.0 0.0 0.0 0.0
0.0000000      0.0 0.0 0.0 0.0 0.0 1.0 0.0 0.0 0.0 0.0 0.0
0.0000000      0.0 0.0 0.0 0.0 0.0 0.0 1.0 0.0 0.0 0.0 0.0
0.0000000      0.0 0.0 0.0 0.0 0.0 0.0 0.0 1.0 0.0 0.0 0.0
0.0000000      0.0 0.0 0.0 0.0 0.0 0.0 0.0 0.0 1.0 0.0 0.0
0.0000000      0.0 0.0 0.0 0.0 0.0 0.0 0.0 0.0 0.0 1.0 0.0
0.0000000      0.0 0.0 0.0 0.0 0.0 0.0 0.0 0.0 0.0 0.0 1.0
* D-type functions
    12    9
471.3247647 201.30479396 85.97812614 36.72162013 15.68395876
6.69868491 2.86103656 1.22196078 0.5219046 0.22290765
0.0952048 0.04066237
0.013697527513 0.0 0.0 0.0 0.0 0.0 0.0 0.0 0.0
0.045298348891 0.0 0.0 0.0 0.0 0.0 0.0 0.0 0.0
0.179574563169 0.0 0.0 0.0 0.0 0.0 0.0 0.0 0.0
0.406466067425 0.0 0.0 0.0 0.0 0.0 0.0 0.0 0.0
0.0000000      1.0 0.0 0.0 0.0 0.0 0.0 0.0 0.0
0.0000000      0.0 1.0 0.0 0.0 0.0 0.0 0.0 0.0
0.0000000      0.0 0.0 1.0 0.0 0.0 0.0 0.0 0.0
0.0000000      0.0 0.0 0.0 1.0 0.0 0.0 0.0 0.0
0.0000000      0.0 0.0 0.0 0.0 1.0 0.0 0.0 0.0
0.0000000      0.0 0.0 0.0 0.0 0.0 1.0 0.0 0.0
0.0000000      0.0 0.0 0.0 0.0 0.0 0.0 1.0 0.0
0.0000000      0.0 0.0 0.0 0.0 0.0 0.0 0.0 1.0
* F-type functions
    7    4
56.04029889 22.49111076 9.02654114 3.62269546 1.45392595
0.58351597 0.23418723
0.017335857499 0.0 0.0 0.0
0.068655024334 0.0 0.0 0.0
0.223441915305 0.0 0.0 0.0
0.389036267605 0.0 0.0 0.0
0.0000000      1.0 0.0 0.0
0.0000000      0.0 1.0 0.0
0.0000000      0.0 0.0 1.0
* G-type functions
    3    3
22.7525000 4.7500000 0.991649269311
1.0 0.0 0.0
0.0 1.0 0.0
0.0 0.0 1.0
* H-type functions
    2    2
9.4642000 3.79113924051
1.0 0.0
0.0 1.0

/Pr.sarc2-qzvp-dkh.Aravena.23s16p12d7f3g2h.18s12p9d4f3g2h.
Daniel Aravena, Frank Neese, and Dimitrios A. Pantazis, Improved Segmented All-Electron Relativistically
Contracted Basis Sets for the Lanthanides, J.Chem.Theory Comput. 12, 1148-1156 (2016).
********************************************************************************************************
* PRASEODYMIUM       (23s,16p,12d,7f,3g,2h) -> [18s,12p,9d,4f,3g,2h]
* PRASEODYMIUM       (23s,16p,12d,7f,3g,2h) -> [18s,12p,9d,4f,3g,2h]
********************************************************************************************************
    59.   5
* S-type functions
    23    18
4449443.7620000 1857835.0164100 775726.3902680 323899.2845130 135241.9459030
56469.3557724 23578.3958894 9844.99902847 4110.71246429 1716.40006415
716.67118676 299.24118547 124.94612416 52.17040535 21.78339834
9.0955100 3.79776841 1.5857324 0.66211179 0.27646028
0.11543411 0.04819873 0.02012505
 0.002034356477 0.0 0.0 0.0 0.0 0.0 0.0 0.0 0.0 0.0 0.0 0.0 0.0 0.0 0.0 0.0 0.0 0.0
-0.00046969027  0.0 0.0 0.0 0.0 0.0 0.0 0.0 0.0 0.0 0.0 0.0 0.0 0.0 0.0 0.0 0.0 0.0
 0.004060292506 0.0 0.0 0.0 0.0 0.0 0.0 0.0 0.0 0.0 0.0 0.0 0.0 0.0 0.0 0.0 0.0 0.0
 0.003166247639 0.0 0.0 0.0 0.0 0.0 0.0 0.0 0.0 0.0 0.0 0.0 0.0 0.0 0.0 0.0 0.0 0.0
 0.009992012851 0.0 0.0 0.0 0.0 0.0 0.0 0.0 0.0 0.0 0.0 0.0 0.0 0.0 0.0 0.0 0.0 0.0
 0.016594342584 0.0 0.0 0.0 0.0 0.0 0.0 0.0 0.0 0.0 0.0 0.0 0.0 0.0 0.0 0.0 0.0 0.0
 0.0000000      1.0 0.0 0.0 0.0 0.0 0.0 0.0 0.0 0.0 0.0 0.0 0.0 0.0 0.0 0.0 0.0 0.0
 0.0000000      0.0 1.0 0.0 0.0 0.0 0.0 0.0 0.0 0.0 0.0 0.0 0.0 0.0 0.0 0.0 0.0 0.0
 0.0000000      0.0 0.0 1.0 0.0 0.0 0.0 0.0 0.0 0.0 0.0 0.0 0.0 0.0 0.0 0.0 0.0 0.0
 0.0000000      0.0 0.0 0.0 1.0 0.0 0.0 0.0 0.0 0.0 0.0 0.0 0.0 0.0 0.0 0.0 0.0 0.0
 0.0000000      0.0 0.0 0.0 0.0 1.0 0.0 0.0 0.0 0.0 0.0 0.0 0.0 0.0 0.0 0.0 0.0 0.0
 0.0000000      0.0 0.0 0.0 0.0 0.0 1.0 0.0 0.0 0.0 0.0 0.0 0.0 0.0 0.0 0.0 0.0 0.0
 0.0000000      0.0 0.0 0.0 0.0 0.0 0.0 1.0 0.0 0.0 0.0 0.0 0.0 0.0 0.0 0.0 0.0 0.0
 0.0000000      0.0 0.0 0.0 0.0 0.0 0.0 0.0 1.0 0.0 0.0 0.0 0.0 0.0 0.0 0.0 0.0 0.0
 0.0000000      0.0 0.0 0.0 0.0 0.0 0.0 0.0 0.0 1.0 0.0 0.0 0.0 0.0 0.0 0.0 0.0 0.0
 0.0000000      0.0 0.0 0.0 0.0 0.0 0.0 0.0 0.0 0.0 1.0 0.0 0.0 0.0 0.0 0.0 0.0 0.0
 0.0000000      0.0 0.0 0.0 0.0 0.0 0.0 0.0 0.0 0.0 0.0 1.0 0.0 0.0 0.0 0.0 0.0 0.0
 0.0000000      0.0 0.0 0.0 0.0 0.0 0.0 0.0 0.0 0.0 0.0 0.0 1.0 0.0 0.0 0.0 0.0 0.0
 0.0000000      0.0 0.0 0.0 0.0 0.0 0.0 0.0 0.0 0.0 0.0 0.0 0.0 1.0 0.0 0.0 0.0 0.0
 0.0000000      0.0 0.0 0.0 0.0 0.0 0.0 0.0 0.0 0.0 0.0 0.0 0.0 0.0 1.0 0.0 0.0 0.0
 0.0000000      0.0 0.0 0.0 0.0 0.0 0.0 0.0 0.0 0.0 0.0 0.0 0.0 0.0 0.0 1.0 0.0 0.0
 0.0000000      0.0 0.0 0.0 0.0 0.0 0.0 0.0 0.0 0.0 0.0 0.0 0.0 0.0 0.0 0.0 1.0 0.0
 0.0000000      0.0 0.0 0.0 0.0 0.0 0.0 0.0 0.0 0.0 0.0 0.0 0.0 0.0 0.0 0.0 0.0 1.0
* P-type functions
    16    12
10853.2816500 4493.08084278 1860.06187905 770.03515293 318.7819413
131.97050253 54.63362657 22.61742658 9.36324417 3.87622973
1.60469562 0.6643177 0.27501665 0.11385239 0.04713302
0.0195123
0.004924099618 0.0 0.0 0.0 0.0 0.0 0.0 0.0 0.0 0.0 0.0 0.0
0.005905279781 0.0 0.0 0.0 0.0 0.0 0.0 0.0 0.0 0.0 0.0 0.0
0.030521471756 0.0 0.0 0.0 0.0 0.0 0.0 0.0 0.0 0.0 0.0 0.0
0.090523145668 0.0 0.0 0.0 0.0 0.0 0.0 0.0 0.0 0.0 0.0 0.0
0.260545444341 0.0 0.0 0.0 0.0 0.0 0.0 0.0 0.0 0.0 0.0 0.0
0.0000000      1.0 0.0 0.0 0.0 0.0 0.0 0.0 0.0 0.0 0.0 0.0
0.0000000      0.0 1.0 0.0 0.0 0.0 0.0 0.0 0.0 0.0 0.0 0.0
0.0000000      0.0 0.0 1.0 0.0 0.0 0.0 0.0 0.0 0.0 0.0 0.0
0.0000000      0.0 0.0 0.0 1.0 0.0 0.0 0.0 0.0 0.0 0.0 0.0
0.0000000      0.0 0.0 0.0 0.0 1.0 0.0 0.0 0.0 0.0 0.0 0.0
0.0000000      0.0 0.0 0.0 0.0 0.0 1.0 0.0 0.0 0.0 0.0 0.0
0.0000000      0.0 0.0 0.0 0.0 0.0 0.0 1.0 0.0 0.0 0.0 0.0
0.0000000      0.0 0.0 0.0 0.0 0.0 0.0 0.0 1.0 0.0 0.0 0.0
0.0000000      0.0 0.0 0.0 0.0 0.0 0.0 0.0 0.0 1.0 0.0 0.0
0.0000000      0.0 0.0 0.0 0.0 0.0 0.0 0.0 0.0 0.0 1.0 0.0
0.0000000      0.0 0.0 0.0 0.0 0.0 0.0 0.0 0.0 0.0 0.0 1.0
* D-type functions
    12    9
494.6264259 210.88277184 89.90935609 38.33263496 16.34302554
6.96780913 2.97070845 1.26655431 0.53999235 0.23022442
0.09815562 0.04184841
0.013592884948 0.0 0.0 0.0 0.0 0.0 0.0 0.0 0.0
0.045225391126 0.0 0.0 0.0 0.0 0.0 0.0 0.0 0.0
0.179951510889 0.0 0.0 0.0 0.0 0.0 0.0 0.0 0.0
0.409214475558 0.0 0.0 0.0 0.0 0.0 0.0 0.0 0.0
0.0000000      1.0 0.0 0.0 0.0 0.0 0.0 0.0 0.0
0.0000000      0.0 1.0 0.0 0.0 0.0 0.0 0.0 0.0
0.0000000      0.0 0.0 1.0 0.0 0.0 0.0 0.0 0.0
0.0000000      0.0 0.0 0.0 1.0 0.0 0.0 0.0 0.0
0.0000000      0.0 0.0 0.0 0.0 1.0 0.0 0.0 0.0
0.0000000      0.0 0.0 0.0 0.0 0.0 1.0 0.0 0.0
0.0000000      0.0 0.0 0.0 0.0 0.0 0.0 1.0 0.0
0.0000000      0.0 0.0 0.0 0.0 0.0 0.0 0.0 1.0
* F-type functions
    7    4
59.48763183 23.9045025 9.60578228 3.85998634 1.55109643
0.62329239 0.25046374
0.017612161739 0.0 0.0 0.0
0.070283121668 0.0 0.0 0.0
0.228577119492 0.0 0.0 0.0
0.39406231233  0.0 0.0 0.0
0.0000000      1.0 0.0 0.0
0.0000000      0.0 1.0 0.0
0.0000000      0.0 0.0 1.0
* G-type functions
    3    3
19.0950000 4.7500000 1.1815920398
1.0 0.0 0.0
0.0 1.0 0.0
0.0 0.0 1.0
* H-type functions
    2    2
10.0897000 3.79754601227
1.0 0.0
0.0 1.0

/Nd.sarc2-qzvp-dkh.Aravena.23s16p12d7f3g2h.18s12p9d4f3g2h.
Daniel Aravena, Frank Neese, and Dimitrios A. Pantazis, Improved Segmented All-Electron Relativistically
Contracted Basis Sets for the Lanthanides, J.Chem.Theory Comput. 12, 1148-1156 (2016).
********************************************************************************************************
* NEODYMIUM       (23s,16p,12d,7f,3g,2h) -> [18s,12p,9d,4f,3g,2h]
* NEODYMIUM       (23s,16p,12d,7f,3g,2h) -> [18s,12p,9d,4f,3g,2h]
********************************************************************************************************
    60.   5
* S-type functions
    23    18
4733993.5910000 1972381.3444400 821777.2358840 342387.0476770 142652.8812170
59435.2054422 24763.2127429 10317.3985988 4298.66330156 1791.00438965
746.20794854 310.9016961 129.53475613 53.96964139 22.4860283
9.36862754 3.90336527 1.62630656 0.67758789 0.28231169
0.11762295 0.04900668 0.02041825
 0.002064076832 0.0 0.0 0.0 0.0 0.0 0.0 0.0 0.0 0.0 0.0 0.0 0.0 0.0 0.0 0.0 0.0 0.0
-0.000463543903 0.0 0.0 0.0 0.0 0.0 0.0 0.0 0.0 0.0 0.0 0.0 0.0 0.0 0.0 0.0 0.0 0.0
 0.004115292168 0.0 0.0 0.0 0.0 0.0 0.0 0.0 0.0 0.0 0.0 0.0 0.0 0.0 0.0 0.0 0.0 0.0
 0.003228303094 0.0 0.0 0.0 0.0 0.0 0.0 0.0 0.0 0.0 0.0 0.0 0.0 0.0 0.0 0.0 0.0 0.0
 0.010123893752 0.0 0.0 0.0 0.0 0.0 0.0 0.0 0.0 0.0 0.0 0.0 0.0 0.0 0.0 0.0 0.0 0.0
 0.016783936414 0.0 0.0 0.0 0.0 0.0 0.0 0.0 0.0 0.0 0.0 0.0 0.0 0.0 0.0 0.0 0.0 0.0
 0.0000000      1.0 0.0 0.0 0.0 0.0 0.0 0.0 0.0 0.0 0.0 0.0 0.0 0.0 0.0 0.0 0.0 0.0
 0.0000000      0.0 1.0 0.0 0.0 0.0 0.0 0.0 0.0 0.0 0.0 0.0 0.0 0.0 0.0 0.0 0.0 0.0
 0.0000000      0.0 0.0 1.0 0.0 0.0 0.0 0.0 0.0 0.0 0.0 0.0 0.0 0.0 0.0 0.0 0.0 0.0
 0.0000000      0.0 0.0 0.0 1.0 0.0 0.0 0.0 0.0 0.0 0.0 0.0 0.0 0.0 0.0 0.0 0.0 0.0
 0.0000000      0.0 0.0 0.0 0.0 1.0 0.0 0.0 0.0 0.0 0.0 0.0 0.0 0.0 0.0 0.0 0.0 0.0
 0.0000000      0.0 0.0 0.0 0.0 0.0 1.0 0.0 0.0 0.0 0.0 0.0 0.0 0.0 0.0 0.0 0.0 0.0
 0.0000000      0.0 0.0 0.0 0.0 0.0 0.0 1.0 0.0 0.0 0.0 0.0 0.0 0.0 0.0 0.0 0.0 0.0
 0.0000000      0.0 0.0 0.0 0.0 0.0 0.0 0.0 1.0 0.0 0.0 0.0 0.0 0.0 0.0 0.0 0.0 0.0
 0.0000000      0.0 0.0 0.0 0.0 0.0 0.0 0.0 0.0 1.0 0.0 0.0 0.0 0.0 0.0 0.0 0.0 0.0
 0.0000000      0.0 0.0 0.0 0.0 0.0 0.0 0.0 0.0 0.0 1.0 0.0 0.0 0.0 0.0 0.0 0.0 0.0
 0.0000000      0.0 0.0 0.0 0.0 0.0 0.0 0.0 0.0 0.0 0.0 1.0 0.0 0.0 0.0 0.0 0.0 0.0
 0.0000000      0.0 0.0 0.0 0.0 0.0 0.0 0.0 0.0 0.0 0.0 0.0 1.0 0.0 0.0 0.0 0.0 0.0
 0.0000000      0.0 0.0 0.0 0.0 0.0 0.0 0.0 0.0 0.0 0.0 0.0 0.0 1.0 0.0 0.0 0.0 0.0
 0.0000000      0.0 0.0 0.0 0.0 0.0 0.0 0.0 0.0 0.0 0.0 0.0 0.0 0.0 1.0 0.0 0.0 0.0
 0.0000000      0.0 0.0 0.0 0.0 0.0 0.0 0.0 0.0 0.0 0.0 0.0 0.0 0.0 0.0 1.0 0.0 0.0
 0.0000000      0.0 0.0 0.0 0.0 0.0 0.0 0.0 0.0 0.0 0.0 0.0 0.0 0.0 0.0 0.0 1.0 0.0
 0.0000000      0.0 0.0 0.0 0.0 0.0 0.0 0.0 0.0 0.0 0.0 0.0 0.0 0.0 0.0 0.0 0.0 1.0
* P-type functions
    16    12
11485.0094600 4743.39539574 1959.05801895 809.10571467 334.16675319
138.01338554 57.00056755 23.54166364 9.72288437 4.01562446
1.65848314 0.68496603 0.28289613 0.11683823 0.04825507
0.01992971
0.004926361941 0.0 0.0 0.0 0.0 0.0 0.0 0.0 0.0 0.0 0.0 0.0
0.005867026013 0.0 0.0 0.0 0.0 0.0 0.0 0.0 0.0 0.0 0.0 0.0
0.030262968271 0.0 0.0 0.0 0.0 0.0 0.0 0.0 0.0 0.0 0.0 0.0
0.089700150347 0.0 0.0 0.0 0.0 0.0 0.0 0.0 0.0 0.0 0.0 0.0
0.25908891381  0.0 0.0 0.0 0.0 0.0 0.0 0.0 0.0 0.0 0.0 0.0
0.0000000      1.0 0.0 0.0 0.0 0.0 0.0 0.0 0.0 0.0 0.0 0.0
0.0000000      0.0 1.0 0.0 0.0 0.0 0.0 0.0 0.0 0.0 0.0 0.0
0.0000000      0.0 0.0 1.0 0.0 0.0 0.0 0.0 0.0 0.0 0.0 0.0
0.0000000      0.0 0.0 0.0 1.0 0.0 0.0 0.0 0.0 0.0 0.0 0.0
0.0000000      0.0 0.0 0.0 0.0 1.0 0.0 0.0 0.0 0.0 0.0 0.0
0.0000000      0.0 0.0 0.0 0.0 0.0 1.0 0.0 0.0 0.0 0.0 0.0
0.0000000      0.0 0.0 0.0 0.0 0.0 0.0 1.0 0.0 0.0 0.0 0.0
0.0000000      0.0 0.0 0.0 0.0 0.0 0.0 0.0 1.0 0.0 0.0 0.0
0.0000000      0.0 0.0 0.0 0.0 0.0 0.0 0.0 0.0 1.0 0.0 0.0
0.0000000      0.0 0.0 0.0 0.0 0.0 0.0 0.0 0.0 0.0 1.0 0.0
0.0000000      0.0 0.0 0.0 0.0 0.0 0.0 0.0 0.0 0.0 0.0 1.0
* D-type functions
    12    9
513.8160293 218.44102176 92.86685753 39.48092331 16.78471035
7.13576275 3.03366033 1.28971426 0.54830228 0.23310232
0.09909989 0.0421308
0.013733973512 0.0 0.0 0.0 0.0 0.0 0.0 0.0 0.0
0.046034694466 0.0 0.0 0.0 0.0 0.0 0.0 0.0 0.0
0.183229471503 0.0 0.0 0.0 0.0 0.0 0.0 0.0 0.0
0.415567978136 0.0 0.0 0.0 0.0 0.0 0.0 0.0 0.0
0.0000000      1.0 0.0 0.0 0.0 0.0 0.0 0.0 0.0
0.0000000      0.0 1.0 0.0 0.0 0.0 0.0 0.0 0.0
0.0000000      0.0 0.0 1.0 0.0 0.0 0.0 0.0 0.0
0.0000000      0.0 0.0 0.0 1.0 0.0 0.0 0.0 0.0
0.0000000      0.0 0.0 0.0 0.0 1.0 0.0 0.0 0.0
0.0000000      0.0 0.0 0.0 0.0 0.0 1.0 0.0 0.0
0.0000000      0.0 0.0 0.0 0.0 0.0 0.0 1.0 0.0
0.0000000      0.0 0.0 0.0 0.0 0.0 0.0 0.0 1.0
* F-type functions
    7    4
63.56175257 25.56002724 10.2784295 4.1332551 1.66210195
0.66837948 0.26877481
0.017526487746 0.0 0.0 0.0
0.070773544032 0.0 0.0 0.0
0.231147929136 0.0 0.0 0.0
0.397169337416 0.0 0.0 0.0
0.0000000      1.0 0.0 0.0
0.0000000      0.0 1.0 0.0
0.0000000      0.0 0.0 1.0
* G-type functions
    3    3
18.0905000 4.8500000 1.30026809651
1.0 0.0 0.0
0.0 1.0 0.0
0.0 0.0 1.0
* H-type functions
    2    2
10.6590000 3.91515151515
1.0 0.0
0.0 1.0

/Pm.sarc2-qzvp-dkh.Aravena.23s16p12d7f3g2h.18s12p9d4f3g2h.
Daniel Aravena, Frank Neese, and Dimitrios A. Pantazis, Improved Segmented All-Electron Relativistically
Contracted Basis Sets for the Lanthanides, J.Chem.Theory Comput. 12, 1148-1156 (2016).
********************************************************************************************************
* PROMETHIUM       (23s,16p,12d,7f,3g,2h) -> [18s,12p,9d,4f,3g,2h]
* PROMETHIUM       (23s,16p,12d,7f,3g,2h) -> [18s,12p,9d,4f,3g,2h]
********************************************************************************************************
    61.   5
* S-type functions
    23    18
4863007.0970000 2026623.8455300 844581.1674400 351973.2336960 146682.3580900
61128.8362721 25475.0105783 10616.5306513 4424.36413223 1843.82248942
768.39999396 320.22526795 133.4516177 55.6150187 23.17716607
9.65892019 4.02528674 1.67750981 0.69909036 0.29134097
0.12141429 0.05059855 0.02108659
 0.002151082427 0.0 0.0 0.0 0.0 0.0 0.0 0.0 0.0 0.0 0.0 0.0 0.0 0.0 0.0 0.0 0.0 0.0
-0.000489686998 0.0 0.0 0.0 0.0 0.0 0.0 0.0 0.0 0.0 0.0 0.0 0.0 0.0 0.0 0.0 0.0 0.0
 0.00427852855  0.0 0.0 0.0 0.0 0.0 0.0 0.0 0.0 0.0 0.0 0.0 0.0 0.0 0.0 0.0 0.0 0.0
 0.003321462872 0.0 0.0 0.0 0.0 0.0 0.0 0.0 0.0 0.0 0.0 0.0 0.0 0.0 0.0 0.0 0.0 0.0
 0.010452223594 0.0 0.0 0.0 0.0 0.0 0.0 0.0 0.0 0.0 0.0 0.0 0.0 0.0 0.0 0.0 0.0 0.0
 0.017213803058 0.0 0.0 0.0 0.0 0.0 0.0 0.0 0.0 0.0 0.0 0.0 0.0 0.0 0.0 0.0 0.0 0.0
 0.0000000      1.0 0.0 0.0 0.0 0.0 0.0 0.0 0.0 0.0 0.0 0.0 0.0 0.0 0.0 0.0 0.0 0.0
 0.0000000      0.0 1.0 0.0 0.0 0.0 0.0 0.0 0.0 0.0 0.0 0.0 0.0 0.0 0.0 0.0 0.0 0.0
 0.0000000      0.0 0.0 1.0 0.0 0.0 0.0 0.0 0.0 0.0 0.0 0.0 0.0 0.0 0.0 0.0 0.0 0.0
 0.0000000      0.0 0.0 0.0 1.0 0.0 0.0 0.0 0.0 0.0 0.0 0.0 0.0 0.0 0.0 0.0 0.0 0.0
 0.0000000      0.0 0.0 0.0 0.0 1.0 0.0 0.0 0.0 0.0 0.0 0.0 0.0 0.0 0.0 0.0 0.0 0.0
 0.0000000      0.0 0.0 0.0 0.0 0.0 1.0 0.0 0.0 0.0 0.0 0.0 0.0 0.0 0.0 0.0 0.0 0.0
 0.0000000      0.0 0.0 0.0 0.0 0.0 0.0 1.0 0.0 0.0 0.0 0.0 0.0 0.0 0.0 0.0 0.0 0.0
 0.0000000      0.0 0.0 0.0 0.0 0.0 0.0 0.0 1.0 0.0 0.0 0.0 0.0 0.0 0.0 0.0 0.0 0.0
 0.0000000      0.0 0.0 0.0 0.0 0.0 0.0 0.0 0.0 1.0 0.0 0.0 0.0 0.0 0.0 0.0 0.0 0.0
 0.0000000      0.0 0.0 0.0 0.0 0.0 0.0 0.0 0.0 0.0 1.0 0.0 0.0 0.0 0.0 0.0 0.0 0.0
 0.0000000      0.0 0.0 0.0 0.0 0.0 0.0 0.0 0.0 0.0 0.0 1.0 0.0 0.0 0.0 0.0 0.0 0.0
 0.0000000      0.0 0.0 0.0 0.0 0.0 0.0 0.0 0.0 0.0 0.0 0.0 1.0 0.0 0.0 0.0 0.0 0.0
 0.0000000      0.0 0.0 0.0 0.0 0.0 0.0 0.0 0.0 0.0 0.0 0.0 0.0 1.0 0.0 0.0 0.0 0.0
 0.0000000      0.0 0.0 0.0 0.0 0.0 0.0 0.0 0.0 0.0 0.0 0.0 0.0 0.0 1.0 0.0 0.0 0.0
 0.0000000      0.0 0.0 0.0 0.0 0.0 0.0 0.0 0.0 0.0 0.0 0.0 0.0 0.0 0.0 1.0 0.0 0.0
 0.0000000      0.0 0.0 0.0 0.0 0.0 0.0 0.0 0.0 0.0 0.0 0.0 0.0 0.0 0.0 0.0 1.0 0.0
 0.0000000      0.0 0.0 0.0 0.0 0.0 0.0 0.0 0.0 0.0 0.0 0.0 0.0 0.0 0.0 0.0 0.0 1.0
* P-type functions
    16    12
12181.1367100 5017.84673598 2067.03089089 851.4840984 350.75681405
144.48930148 59.52032122 24.51855329 10.10007075 4.16058109
1.71389245 0.70601372 0.29083235 0.11980427 0.04935167
0.02032972
0.0049135709   0.0 0.0 0.0 0.0 0.0 0.0 0.0 0.0 0.0 0.0 0.0
0.005815337541 0.0 0.0 0.0 0.0 0.0 0.0 0.0 0.0 0.0 0.0 0.0
0.029922984715 0.0 0.0 0.0 0.0 0.0 0.0 0.0 0.0 0.0 0.0 0.0
0.088681113915 0.0 0.0 0.0 0.0 0.0 0.0 0.0 0.0 0.0 0.0 0.0
0.257205847959 0.0 0.0 0.0 0.0 0.0 0.0 0.0 0.0 0.0 0.0 0.0
0.0000000      1.0 0.0 0.0 0.0 0.0 0.0 0.0 0.0 0.0 0.0 0.0
0.0000000      0.0 1.0 0.0 0.0 0.0 0.0 0.0 0.0 0.0 0.0 0.0
0.0000000      0.0 0.0 1.0 0.0 0.0 0.0 0.0 0.0 0.0 0.0 0.0
0.0000000      0.0 0.0 0.0 1.0 0.0 0.0 0.0 0.0 0.0 0.0 0.0
0.0000000      0.0 0.0 0.0 0.0 1.0 0.0 0.0 0.0 0.0 0.0 0.0
0.0000000      0.0 0.0 0.0 0.0 0.0 1.0 0.0 0.0 0.0 0.0 0.0
0.0000000      0.0 0.0 0.0 0.0 0.0 0.0 1.0 0.0 0.0 0.0 0.0
0.0000000      0.0 0.0 0.0 0.0 0.0 0.0 0.0 1.0 0.0 0.0 0.0
0.0000000      0.0 0.0 0.0 0.0 0.0 0.0 0.0 0.0 1.0 0.0 0.0
0.0000000      0.0 0.0 0.0 0.0 0.0 0.0 0.0 0.0 0.0 1.0 0.0
0.0000000      0.0 0.0 0.0 0.0 0.0 0.0 0.0 0.0 0.0 0.0 1.0
* D-type functions
    12    9
533.0056327 225.92753275 95.76493553 40.59232076 17.20605246
7.29320807 3.09140543 1.31036814 0.55543173 0.23543339
0.09979422 0.04230023
0.013894594922 0.0 0.0 0.0 0.0 0.0 0.0 0.0 0.0
0.046916873497 0.0 0.0 0.0 0.0 0.0 0.0 0.0 0.0
0.186771749619 0.0 0.0 0.0 0.0 0.0 0.0 0.0 0.0
0.422112283219 0.0 0.0 0.0 0.0 0.0 0.0 0.0 0.0
0.0000000      1.0 0.0 0.0 0.0 0.0 0.0 0.0 0.0
0.0000000      0.0 1.0 0.0 0.0 0.0 0.0 0.0 0.0
0.0000000      0.0 0.0 1.0 0.0 0.0 0.0 0.0 0.0
0.0000000      0.0 0.0 0.0 1.0 0.0 0.0 0.0 0.0
0.0000000      0.0 0.0 0.0 0.0 1.0 0.0 0.0 0.0
0.0000000      0.0 0.0 0.0 0.0 0.0 1.0 0.0 0.0
0.0000000      0.0 0.0 0.0 0.0 0.0 0.0 1.0 0.0
0.0000000      0.0 0.0 0.0 0.0 0.0 0.0 0.0 1.0
* F-type functions
    7    4
67.32247941 27.07824994 10.89133416 4.38068044 1.76198442
0.7087002 0.28505131
0.017620929257 0.0 0.0 0.0
0.071837711669 0.0 0.0 0.0
0.234762552082 0.0 0.0 0.0
0.400435331907 0.0 0.0 0.0
0.0000000      1.0 0.0 0.0
0.0000000      0.0 1.0 0.0
0.0000000      0.0 0.0 1.0
* G-type functions
    3    3
17.2755000 4.9500000 1.41833810888
1.0 0.0 0.0
0.0 1.0 0.0
0.0 0.0 1.0
* H-type functions
    2    2
11.1556000 4.0000000
1.0 0.0
0.0 1.0

/Sm.sarc2-qzvp-dkh.Aravena.23s16p12d7f3g2h.18s12p9d4f3g2h.
Daniel Aravena, Frank Neese, and Dimitrios A. Pantazis, Improved Segmented All-Electron Relativistically
Contracted Basis Sets for the Lanthanides, J.Chem.Theory Comput. 12, 1148-1156 (2016).
********************************************************************************************************
* SAMARIUM       (23s,16p,12d,7f,3g,2h) -> [18s,12p,9d,4f,3g,2h]
* SAMARIUM       (23s,16p,12d,7f,3g,2h) -> [18s,12p,9d,4f,3g,2h]
********************************************************************************************************
    62.   5
* S-type functions
    23    18
5612784.1600000 2326027.7417000 963943.1877180 399473.5112090 165548.2275210
68605.8396024 28431.3598401 11782.4113376 4882.82015737 2023.51895602
838.57869702 347.52045638 144.01804868 59.68338831 24.73375298
10.25006377 4.24779076 1.76035259 0.72951834 0.30232409
0.12528795 0.05192134 0.02151703
 0.002053819344 0.0 0.0 0.0 0.0 0.0 0.0 0.0 0.0 0.0 0.0 0.0 0.0 0.0 0.0 0.0 0.0 0.0
-0.000427989608 0.0 0.0 0.0 0.0 0.0 0.0 0.0 0.0 0.0 0.0 0.0 0.0 0.0 0.0 0.0 0.0 0.0
 0.004087303018 0.0 0.0 0.0 0.0 0.0 0.0 0.0 0.0 0.0 0.0 0.0 0.0 0.0 0.0 0.0 0.0 0.0
 0.003261486124 0.0 0.0 0.0 0.0 0.0 0.0 0.0 0.0 0.0 0.0 0.0 0.0 0.0 0.0 0.0 0.0 0.0
 0.010064130743 0.0 0.0 0.0 0.0 0.0 0.0 0.0 0.0 0.0 0.0 0.0 0.0 0.0 0.0 0.0 0.0 0.0
 0.016636727384 0.0 0.0 0.0 0.0 0.0 0.0 0.0 0.0 0.0 0.0 0.0 0.0 0.0 0.0 0.0 0.0 0.0
 0.0000000      1.0 0.0 0.0 0.0 0.0 0.0 0.0 0.0 0.0 0.0 0.0 0.0 0.0 0.0 0.0 0.0 0.0
 0.0000000      0.0 1.0 0.0 0.0 0.0 0.0 0.0 0.0 0.0 0.0 0.0 0.0 0.0 0.0 0.0 0.0 0.0
 0.0000000      0.0 0.0 1.0 0.0 0.0 0.0 0.0 0.0 0.0 0.0 0.0 0.0 0.0 0.0 0.0 0.0 0.0
 0.0000000      0.0 0.0 0.0 1.0 0.0 0.0 0.0 0.0 0.0 0.0 0.0 0.0 0.0 0.0 0.0 0.0 0.0
 0.0000000      0.0 0.0 0.0 0.0 1.0 0.0 0.0 0.0 0.0 0.0 0.0 0.0 0.0 0.0 0.0 0.0 0.0
 0.0000000      0.0 0.0 0.0 0.0 0.0 1.0 0.0 0.0 0.0 0.0 0.0 0.0 0.0 0.0 0.0 0.0 0.0
 0.0000000      0.0 0.0 0.0 0.0 0.0 0.0 1.0 0.0 0.0 0.0 0.0 0.0 0.0 0.0 0.0 0.0 0.0
 0.0000000      0.0 0.0 0.0 0.0 0.0 0.0 0.0 1.0 0.0 0.0 0.0 0.0 0.0 0.0 0.0 0.0 0.0
 0.0000000      0.0 0.0 0.0 0.0 0.0 0.0 0.0 0.0 1.0 0.0 0.0 0.0 0.0 0.0 0.0 0.0 0.0
 0.0000000      0.0 0.0 0.0 0.0 0.0 0.0 0.0 0.0 0.0 1.0 0.0 0.0 0.0 0.0 0.0 0.0 0.0
 0.0000000      0.0 0.0 0.0 0.0 0.0 0.0 0.0 0.0 0.0 0.0 1.0 0.0 0.0 0.0 0.0 0.0 0.0
 0.0000000      0.0 0.0 0.0 0.0 0.0 0.0 0.0 0.0 0.0 0.0 0.0 1.0 0.0 0.0 0.0 0.0 0.0
 0.0000000      0.0 0.0 0.0 0.0 0.0 0.0 0.0 0.0 0.0 0.0 0.0 0.0 1.0 0.0 0.0 0.0 0.0
 0.0000000      0.0 0.0 0.0 0.0 0.0 0.0 0.0 0.0 0.0 0.0 0.0 0.0 0.0 1.0 0.0 0.0 0.0
 0.0000000      0.0 0.0 0.0 0.0 0.0 0.0 0.0 0.0 0.0 0.0 0.0 0.0 0.0 0.0 1.0 0.0 0.0
 0.0000000      0.0 0.0 0.0 0.0 0.0 0.0 0.0 0.0 0.0 0.0 0.0 0.0 0.0 0.0 0.0 1.0 0.0
 0.0000000      0.0 0.0 0.0 0.0 0.0 0.0 0.0 0.0 0.0 0.0 0.0 0.0 0.0 0.0 0.0 0.0 1.0
* P-type functions
    16    12
12843.8716500 5275.19225837 2166.60942441 889.86261884 365.48141603
150.10931197 61.6523975 25.32166771 10.40003117 4.27146622
1.7543624 0.72054589 0.29594021 0.12154758 0.04992162
0.02050364
0.004931874888 0.0 0.0 0.0 0.0 0.0 0.0 0.0 0.0 0.0 0.0 0.0
0.005819091571 0.0 0.0 0.0 0.0 0.0 0.0 0.0 0.0 0.0 0.0 0.0
0.029846781271 0.0 0.0 0.0 0.0 0.0 0.0 0.0 0.0 0.0 0.0 0.0
0.08844464794  0.0 0.0 0.0 0.0 0.0 0.0 0.0 0.0 0.0 0.0 0.0
0.257192035122 0.0 0.0 0.0 0.0 0.0 0.0 0.0 0.0 0.0 0.0 0.0
0.0000000      1.0 0.0 0.0 0.0 0.0 0.0 0.0 0.0 0.0 0.0 0.0
0.0000000      0.0 1.0 0.0 0.0 0.0 0.0 0.0 0.0 0.0 0.0 0.0
0.0000000      0.0 0.0 1.0 0.0 0.0 0.0 0.0 0.0 0.0 0.0 0.0
0.0000000      0.0 0.0 0.0 1.0 0.0 0.0 0.0 0.0 0.0 0.0 0.0
0.0000000      0.0 0.0 0.0 0.0 1.0 0.0 0.0 0.0 0.0 0.0 0.0
0.0000000      0.0 0.0 0.0 0.0 0.0 1.0 0.0 0.0 0.0 0.0 0.0
0.0000000      0.0 0.0 0.0 0.0 0.0 0.0 1.0 0.0 0.0 0.0 0.0
0.0000000      0.0 0.0 0.0 0.0 0.0 0.0 0.0 1.0 0.0 0.0 0.0
0.0000000      0.0 0.0 0.0 0.0 0.0 0.0 0.0 0.0 1.0 0.0 0.0
0.0000000      0.0 0.0 0.0 0.0 0.0 0.0 0.0 0.0 0.0 1.0 0.0
0.0000000      0.0 0.0 0.0 0.0 0.0 0.0 0.0 0.0 0.0 0.0 1.0
* D-type functions
    12    9
550.8245501 232.78357422 98.37650195 41.57482403 17.56990703
7.42520601 3.13796107 1.32613151 0.5604355 0.23684525
0.1000930 0.04230023
0.014139376544 0.0 0.0 0.0 0.0 0.0 0.0 0.0 0.0
0.048053431792 0.0 0.0 0.0 0.0 0.0 0.0 0.0 0.0
0.191121642048 0.0 0.0 0.0 0.0 0.0 0.0 0.0 0.0
0.429293223943 0.0 0.0 0.0 0.0 0.0 0.0 0.0 0.0
0.0000000      1.0 0.0 0.0 0.0 0.0 0.0 0.0 0.0
0.0000000      0.0 1.0 0.0 0.0 0.0 0.0 0.0 0.0
0.0000000      0.0 0.0 1.0 0.0 0.0 0.0 0.0 0.0
0.0000000      0.0 0.0 0.0 1.0 0.0 0.0 0.0 0.0
0.0000000      0.0 0.0 0.0 0.0 1.0 0.0 0.0 0.0
0.0000000      0.0 0.0 0.0 0.0 0.0 1.0 0.0 0.0
0.0000000      0.0 0.0 0.0 0.0 0.0 0.0 1.0 0.0
0.0000000      0.0 0.0 0.0 0.0 0.0 0.0 0.0 1.0
* F-type functions
    7    4
70.76981235 28.45921118 11.44452237 4.60227417 1.85074805
0.74425561 0.29929326
0.017879579632 0.0 0.0 0.0
0.073443557639 0.0 0.0 0.0
0.239367566524 0.0 0.0 0.0
0.403860856443 0.0 0.0 0.0
0.0000000      1.0 0.0 0.0
0.0000000      0.0 1.0 0.0
0.0000000      0.0 0.0 1.0
* G-type functions
    3    3
17.3056000 5.1200000 1.51479289941
1.0 0.0 0.0
0.0 1.0 0.0
0.0 0.0 1.0
* H-type functions
    2    2
11.5765000 4.05325443787
1.0 0.0
0.0 1.0

/Eu.sarc2-qzvp-dkh.Aravena.23s16p12d7f3g2h.18s12p9d4f3g2h.
Daniel Aravena, Frank Neese, and Dimitrios A. Pantazis, Improved Segmented All-Electron Relativistically
Contracted Basis Sets for the Lanthanides, J.Chem.Theory Comput. 12, 1148-1156 (2016).
********************************************************************************************************
* EUROPIUM       (23s,16p,12d,7f,3g,2h) -> [18s,12p,9d,4f,3g,2h]
* EUROPIUM       (23s,16p,12d,7f,3g,2h) -> [18s,12p,9d,4f,3g,2h]
********************************************************************************************************
    63.   5
* S-type functions
    23    18
5701463.0100000 2364341.3541000 980469.4038870 406591.1423030 168609.3990740
69920.6807482 28995.4274385 12024.1222388 4986.28674889 2067.76470234
857.4819459 355.58943758 147.4594873 61.15001768 25.358318620
10.51584853 4.36082028 1.80838983 0.74992171 0.31098525
0.12896256 0.05347952 0.02217744
 0.00215685505  0.0 0.0 0.0 0.0 0.0 0.0 0.0 0.0 0.0 0.0 0.0 0.0 0.0 0.0 0.0 0.0 0.0
-0.000459516351 0.0 0.0 0.0 0.0 0.0 0.0 0.0 0.0 0.0 0.0 0.0 0.0 0.0 0.0 0.0 0.0 0.0
 0.004281079803 0.0 0.0 0.0 0.0 0.0 0.0 0.0 0.0 0.0 0.0 0.0 0.0 0.0 0.0 0.0 0.0 0.0
 0.003372450903 0.0 0.0 0.0 0.0 0.0 0.0 0.0 0.0 0.0 0.0 0.0 0.0 0.0 0.0 0.0 0.0 0.0
 0.010458037493 0.0 0.0 0.0 0.0 0.0 0.0 0.0 0.0 0.0 0.0 0.0 0.0 0.0 0.0 0.0 0.0 0.0
 0.017164631414 0.0 0.0 0.0 0.0 0.0 0.0 0.0 0.0 0.0 0.0 0.0 0.0 0.0 0.0 0.0 0.0 0.0
 0.0000000      1.0 0.0 0.0 0.0 0.0 0.0 0.0 0.0 0.0 0.0 0.0 0.0 0.0 0.0 0.0 0.0 0.0
 0.0000000      0.0 1.0 0.0 0.0 0.0 0.0 0.0 0.0 0.0 0.0 0.0 0.0 0.0 0.0 0.0 0.0 0.0
 0.0000000      0.0 0.0 1.0 0.0 0.0 0.0 0.0 0.0 0.0 0.0 0.0 0.0 0.0 0.0 0.0 0.0 0.0
 0.0000000      0.0 0.0 0.0 1.0 0.0 0.0 0.0 0.0 0.0 0.0 0.0 0.0 0.0 0.0 0.0 0.0 0.0
 0.0000000      0.0 0.0 0.0 0.0 1.0 0.0 0.0 0.0 0.0 0.0 0.0 0.0 0.0 0.0 0.0 0.0 0.0
 0.0000000      0.0 0.0 0.0 0.0 0.0 1.0 0.0 0.0 0.0 0.0 0.0 0.0 0.0 0.0 0.0 0.0 0.0
 0.0000000      0.0 0.0 0.0 0.0 0.0 0.0 1.0 0.0 0.0 0.0 0.0 0.0 0.0 0.0 0.0 0.0 0.0
 0.0000000      0.0 0.0 0.0 0.0 0.0 0.0 0.0 1.0 0.0 0.0 0.0 0.0 0.0 0.0 0.0 0.0 0.0
 0.0000000      0.0 0.0 0.0 0.0 0.0 0.0 0.0 0.0 1.0 0.0 0.0 0.0 0.0 0.0 0.0 0.0 0.0
 0.0000000      0.0 0.0 0.0 0.0 0.0 0.0 0.0 0.0 0.0 1.0 0.0 0.0 0.0 0.0 0.0 0.0 0.0
 0.0000000      0.0 0.0 0.0 0.0 0.0 0.0 0.0 0.0 0.0 0.0 1.0 0.0 0.0 0.0 0.0 0.0 0.0
 0.0000000      0.0 0.0 0.0 0.0 0.0 0.0 0.0 0.0 0.0 0.0 0.0 1.0 0.0 0.0 0.0 0.0 0.0
 0.0000000      0.0 0.0 0.0 0.0 0.0 0.0 0.0 0.0 0.0 0.0 0.0 0.0 1.0 0.0 0.0 0.0 0.0
 0.0000000      0.0 0.0 0.0 0.0 0.0 0.0 0.0 0.0 0.0 0.0 0.0 0.0 0.0 1.0 0.0 0.0 0.0
 0.0000000      0.0 0.0 0.0 0.0 0.0 0.0 0.0 0.0 0.0 0.0 0.0 0.0 0.0 0.0 1.0 0.0 0.0
 0.0000000      0.0 0.0 0.0 0.0 0.0 0.0 0.0 0.0 0.0 0.0 0.0 0.0 0.0 0.0 0.0 1.0 0.0
 0.0000000      0.0 0.0 0.0 0.0 0.0 0.0 0.0 0.0 0.0 0.0 0.0 0.0 0.0 0.0 0.0 0.0 1.0
* P-type functions
    16    12
13576.7985700 5562.47748202 2278.97287998 933.70578208 382.54359899
156.72989065 64.212964710 26.30835012 10.77865333 4.41606437
1.8092821 0.741271290 0.30370229 0.12442824 0.05097883
0.02088626
0.004935093326 0.0 0.0 0.0 0.0 0.0 0.0 0.0 0.0 0.0 0.0 0.0
0.005787157584 0.0 0.0 0.0 0.0 0.0 0.0 0.0 0.0 0.0 0.0 0.0
0.029606243447 0.0 0.0 0.0 0.0 0.0 0.0 0.0 0.0 0.0 0.0 0.0
0.087655912727 0.0 0.0 0.0 0.0 0.0 0.0 0.0 0.0 0.0 0.0 0.0
0.255723084943 0.0 0.0 0.0 0.0 0.0 0.0 0.0 0.0 0.0 0.0 0.0
0.0000000      1.0 0.0 0.0 0.0 0.0 0.0 0.0 0.0 0.0 0.0 0.0
0.0000000      0.0 1.0 0.0 0.0 0.0 0.0 0.0 0.0 0.0 0.0 0.0
0.0000000      0.0 0.0 1.0 0.0 0.0 0.0 0.0 0.0 0.0 0.0 0.0
0.0000000      0.0 0.0 0.0 1.0 0.0 0.0 0.0 0.0 0.0 0.0 0.0
0.0000000      0.0 0.0 0.0 0.0 1.0 0.0 0.0 0.0 0.0 0.0 0.0
0.0000000      0.0 0.0 0.0 0.0 0.0 1.0 0.0 0.0 0.0 0.0 0.0
0.0000000      0.0 0.0 0.0 0.0 0.0 0.0 1.0 0.0 0.0 0.0 0.0
0.0000000      0.0 0.0 0.0 0.0 0.0 0.0 0.0 1.0 0.0 0.0 0.0
0.0000000      0.0 0.0 0.0 0.0 0.0 0.0 0.0 0.0 1.0 0.0 0.0
0.0000000      0.0 0.0 0.0 0.0 0.0 0.0 0.0 0.0 0.0 1.0 0.0
0.0000000      0.0 0.0 0.0 0.0 0.0 0.0 0.0 0.0 0.0 0.0 1.0
* D-type functions
    12    9
567.2727815 239.03622641 100.72458859 42.44311793 17.884592880
7.5361726 3.17557676 1.33811794 0.56385336 0.237595360
0.10011744 0.04218728
0.014464091474 0.0 0.0 0.0 0.0 0.0 0.0 0.0 0.0
0.049420467761 0.0 0.0 0.0 0.0 0.0 0.0 0.0 0.0
0.196184171648 0.0 0.0 0.0 0.0 0.0 0.0 0.0 0.0
0.436874819455 0.0 0.0 0.0 0.0 0.0 0.0 0.0 0.0
0.0000000      1.0 0.0 0.0 0.0 0.0 0.0 0.0 0.0
0.0000000      0.0 1.0 0.0 0.0 0.0 0.0 0.0 0.0
0.0000000      0.0 0.0 1.0 0.0 0.0 0.0 0.0 0.0
0.0000000      0.0 0.0 0.0 1.0 0.0 0.0 0.0 0.0
0.0000000      0.0 0.0 0.0 0.0 1.0 0.0 0.0 0.0
0.0000000      0.0 0.0 0.0 0.0 0.0 1.0 0.0 0.0
0.0000000      0.0 0.0 0.0 0.0 0.0 0.0 1.0 0.0
0.0000000      0.0 0.0 0.0 0.0 0.0 0.0 0.0 1.0
* F-type functions
    7    4
75.1573270 30.18737399 12.12493292 4.87004926 1.95608338
0.78567218 0.31556976
0.017705853562 0.0 0.0 0.0
0.073791501905 0.0 0.0 0.0
0.241537471881 0.0 0.0 0.0
0.406289173873 0.0 0.0 0.0
0.0000000      1.0 0.0 0.0
0.0000000      0.0 1.0 0.0
0.0000000      0.0 0.0 1.0
* G-type functions
    3    3
17.3840000 5.3000000 1.61585365854
1.0 0.0 0.0
0.0 1.0 0.0
0.0 0.0 1.0
* H-type functions
    2    2
12.0870000 4.18235294118
1.0 0.0
0.0 1.0

/Gd.sarc2-qzvp-dkh.Aravena.23s16p12d7f3g2h.18s12p9d4f3g2h.
Daniel Aravena, Frank Neese, and Dimitrios A. Pantazis, Improved Segmented All-Electron Relativistically
Contracted Basis Sets for the Lanthanides, J.Chem.Theory Comput. 12, 1148-1156 (2016).
********************************************************************************************************
* GADOLINIUM       (23s,16p,12d,7f,3g,2h) -> [18s,12p,9d,4f,3g,2h]
* GADOLINIUM       (23s,16p,12d,7f,3g,2h) -> [18s,12p,9d,4f,3g,2h]
********************************************************************************************************
    64.   5
* S-type functions
    23    18
6038159.4080000 2498935.6088000 1034202.4373600 428012.1015010 177135.8801850
73308.9553754 30339.4373439 12556.1939006 5196.47096556 2150.59680582
890.03992361 368.34941049 152.44404729 63.09006311 26.11027544
10.80592489 4.47210957 1.85081464 0.76597292 0.31700339
0.13119413 0.05429563 0.02247064
 0.002193720338 0.0 0.0 0.0 0.0 0.0 0.0 0.0 0.0 0.0 0.0 0.0 0.0 0.0 0.0 0.0 0.0 0.0
-0.000455066997 0.0 0.0 0.0 0.0 0.0 0.0 0.0 0.0 0.0 0.0 0.0 0.0 0.0 0.0 0.0 0.0 0.0
 0.004349503884 0.0 0.0 0.0 0.0 0.0 0.0 0.0 0.0 0.0 0.0 0.0 0.0 0.0 0.0 0.0 0.0 0.0
 0.003442671447 0.0 0.0 0.0 0.0 0.0 0.0 0.0 0.0 0.0 0.0 0.0 0.0 0.0 0.0 0.0 0.0 0.0
 0.010617762556 0.0 0.0 0.0 0.0 0.0 0.0 0.0 0.0 0.0 0.0 0.0 0.0 0.0 0.0 0.0 0.0 0.0
 0.017393625393 0.0 0.0 0.0 0.0 0.0 0.0 0.0 0.0 0.0 0.0 0.0 0.0 0.0 0.0 0.0 0.0 0.0
 0.0000000      1.0 0.0 0.0 0.0 0.0 0.0 0.0 0.0 0.0 0.0 0.0 0.0 0.0 0.0 0.0 0.0 0.0
 0.0000000      0.0 1.0 0.0 0.0 0.0 0.0 0.0 0.0 0.0 0.0 0.0 0.0 0.0 0.0 0.0 0.0 0.0
 0.0000000      0.0 0.0 1.0 0.0 0.0 0.0 0.0 0.0 0.0 0.0 0.0 0.0 0.0 0.0 0.0 0.0 0.0
 0.0000000      0.0 0.0 0.0 1.0 0.0 0.0 0.0 0.0 0.0 0.0 0.0 0.0 0.0 0.0 0.0 0.0 0.0
 0.0000000      0.0 0.0 0.0 0.0 1.0 0.0 0.0 0.0 0.0 0.0 0.0 0.0 0.0 0.0 0.0 0.0 0.0
 0.0000000      0.0 0.0 0.0 0.0 0.0 1.0 0.0 0.0 0.0 0.0 0.0 0.0 0.0 0.0 0.0 0.0 0.0
 0.0000000      0.0 0.0 0.0 0.0 0.0 0.0 1.0 0.0 0.0 0.0 0.0 0.0 0.0 0.0 0.0 0.0 0.0
 0.0000000      0.0 0.0 0.0 0.0 0.0 0.0 0.0 1.0 0.0 0.0 0.0 0.0 0.0 0.0 0.0 0.0 0.0
 0.0000000      0.0 0.0 0.0 0.0 0.0 0.0 0.0 0.0 1.0 0.0 0.0 0.0 0.0 0.0 0.0 0.0 0.0
 0.0000000      0.0 0.0 0.0 0.0 0.0 0.0 0.0 0.0 0.0 1.0 0.0 0.0 0.0 0.0 0.0 0.0 0.0
 0.0000000      0.0 0.0 0.0 0.0 0.0 0.0 0.0 0.0 0.0 0.0 1.0 0.0 0.0 0.0 0.0 0.0 0.0
 0.0000000      0.0 0.0 0.0 0.0 0.0 0.0 0.0 0.0 0.0 0.0 0.0 1.0 0.0 0.0 0.0 0.0 0.0
 0.0000000      0.0 0.0 0.0 0.0 0.0 0.0 0.0 0.0 0.0 0.0 0.0 0.0 1.0 0.0 0.0 0.0 0.0
 0.0000000      0.0 0.0 0.0 0.0 0.0 0.0 0.0 0.0 0.0 0.0 0.0 0.0 0.0 1.0 0.0 0.0 0.0
 0.0000000      0.0 0.0 0.0 0.0 0.0 0.0 0.0 0.0 0.0 0.0 0.0 0.0 0.0 0.0 1.0 0.0 0.0
 0.0000000      0.0 0.0 0.0 0.0 0.0 0.0 0.0 0.0 0.0 0.0 0.0 0.0 0.0 0.0 0.0 1.0 0.0
 0.0000000      0.0 0.0 0.0 0.0 0.0 0.0 0.0 0.0 0.0 0.0 0.0 0.0 0.0 0.0 0.0 0.0 1.0
* P-type functions
    16    12
14322.6735300 5851.70079326 2390.78284527 976.78312941 399.07651328
163.04751654 66.61502686 27.21637163 11.11957646 4.5430369
1.85611245 0.7583371 0.30982776 0.12658386 0.05171736
0.02112975
0.004947582135 0.0 0.0 0.0 0.0 0.0 0.0 0.0 0.0 0.0 0.0 0.0
0.005778414058 0.0 0.0 0.0 0.0 0.0 0.0 0.0 0.0 0.0 0.0 0.0
0.029467130475 0.0 0.0 0.0 0.0 0.0 0.0 0.0 0.0 0.0 0.0 0.0
0.087194663396 0.0 0.0 0.0 0.0 0.0 0.0 0.0 0.0 0.0 0.0 0.0
0.255074532236 0.0 0.0 0.0 0.0 0.0 0.0 0.0 0.0 0.0 0.0 0.0
0.0000000      1.0 0.0 0.0 0.0 0.0 0.0 0.0 0.0 0.0 0.0 0.0
0.0000000      0.0 1.0 0.0 0.0 0.0 0.0 0.0 0.0 0.0 0.0 0.0
0.0000000      0.0 0.0 1.0 0.0 0.0 0.0 0.0 0.0 0.0 0.0 0.0
0.0000000      0.0 0.0 0.0 1.0 0.0 0.0 0.0 0.0 0.0 0.0 0.0
0.0000000      0.0 0.0 0.0 0.0 1.0 0.0 0.0 0.0 0.0 0.0 0.0
0.0000000      0.0 0.0 0.0 0.0 0.0 1.0 0.0 0.0 0.0 0.0 0.0
0.0000000      0.0 0.0 0.0 0.0 0.0 0.0 1.0 0.0 0.0 0.0 0.0
0.0000000      0.0 0.0 0.0 0.0 0.0 0.0 0.0 1.0 0.0 0.0 0.0
0.0000000      0.0 0.0 0.0 0.0 0.0 0.0 0.0 0.0 1.0 0.0 0.0
0.0000000      0.0 0.0 0.0 0.0 0.0 0.0 0.0 0.0 0.0 1.0 0.0
0.0000000      0.0 0.0 0.0 0.0 0.0 0.0 0.0 0.0 0.0 0.0 1.0
* D-type functions
    12    9
580.9796411 244.13210347 102.58618328 43.10750143 18.1141029
7.61168504 3.19848846 1.3440294 0.56477147 0.2373213
0.09972423 0.04190489
0.014932689598 0.0 0.0 0.0 0.0 0.0 0.0 0.0 0.0
0.051202710486 0.0 0.0 0.0 0.0 0.0 0.0 0.0 0.0
0.202500741879 0.0 0.0 0.0 0.0 0.0 0.0 0.0 0.0
0.445195114292 0.0 0.0 0.0 0.0 0.0 0.0 0.0 0.0
0.0000000      1.0 0.0 0.0 0.0 0.0 0.0 0.0 0.0
0.0000000      0.0 1.0 0.0 0.0 0.0 0.0 0.0 0.0
0.0000000      0.0 0.0 1.0 0.0 0.0 0.0 0.0 0.0
0.0000000      0.0 0.0 0.0 1.0 0.0 0.0 0.0 0.0
0.0000000      0.0 0.0 0.0 0.0 1.0 0.0 0.0 0.0
0.0000000      0.0 0.0 0.0 0.0 0.0 1.0 0.0 0.0
0.0000000      0.0 0.0 0.0 0.0 0.0 0.0 1.0 0.0
0.0000000      0.0 0.0 0.0 0.0 0.0 0.0 0.0 1.0
* F-type functions
    7    4
78.91805384 31.67315428 12.7117770 5.10177399 2.04755777
0.82177157 0.3298117
0.01784635737  0.0 0.0 0.0
0.07503308705  0.0 0.0 0.0
0.245254599887 0.0 0.0 0.0
0.408906289468 0.0 0.0 0.0
0.0000000      1.0 0.0 0.0
0.0000000      0.0 1.0 0.0
0.0000000      0.0 0.0 1.0
* G-type functions
    3    3
17.8200000 5.5000000 1.6975308642
1.0 0.0 0.0
0.0 1.0 0.0
0.0 0.0 1.0
* H-type functions
    2    2
12.8180000 4.43529411765
1.0 0.0
0.0 1.0

/Tb.sarc2-qzvp-dkh.Aravena.23s16p12d7f3g2h.18s12p9d4f3g2h.
Daniel Aravena, Frank Neese, and Dimitrios A. Pantazis, Improved Segmented All-Electron Relativistically
Contracted Basis Sets for the Lanthanides, J.Chem.Theory Comput. 12, 1148-1156 (2016).
********************************************************************************************************
* TERBIUM       (23s,16p,12d,7f,3g,2h) -> [18s,12p,9d,4f,3g,2h]
* TERBIUM       (23s,16p,12d,7f,3g,2h) -> [18s,12p,9d,4f,3g,2h]
********************************************************************************************************
    65.   5
* S-type functions
    23    18
6758316.7030000 2785558.3949700 1148116.5966000 473216.3295380 195044.3841730
80390.9531913 33134.5369539 13656.9787465 5628.9625759 2320.07534528
956.25961893 394.13912167 162.45133032 66.95715617 27.59756263
11.37481797 4.68833011 1.93237723 0.79646306 0.32827618
0.13530477 0.05576822 0.02298585
 0.002142945089 0.0 0.0 0.0 0.0 0.0 0.0 0.0 0.0 0.0 0.0 0.0 0.0 0.0 0.0 0.0 0.0 0.0
-0.000415976349 0.0 0.0 0.0 0.0 0.0 0.0 0.0 0.0 0.0 0.0 0.0 0.0 0.0 0.0 0.0 0.0 0.0
 0.004248539726 0.0 0.0 0.0 0.0 0.0 0.0 0.0 0.0 0.0 0.0 0.0 0.0 0.0 0.0 0.0 0.0 0.0
 0.003421236559 0.0 0.0 0.0 0.0 0.0 0.0 0.0 0.0 0.0 0.0 0.0 0.0 0.0 0.0 0.0 0.0 0.0
 0.010413993108 0.0 0.0 0.0 0.0 0.0 0.0 0.0 0.0 0.0 0.0 0.0 0.0 0.0 0.0 0.0 0.0 0.0
 0.017080408829 0.0 0.0 0.0 0.0 0.0 0.0 0.0 0.0 0.0 0.0 0.0 0.0 0.0 0.0 0.0 0.0 0.0
 0.0000000      1.0 0.0 0.0 0.0 0.0 0.0 0.0 0.0 0.0 0.0 0.0 0.0 0.0 0.0 0.0 0.0 0.0
 0.0000000      0.0 1.0 0.0 0.0 0.0 0.0 0.0 0.0 0.0 0.0 0.0 0.0 0.0 0.0 0.0 0.0 0.0
 0.0000000      0.0 0.0 1.0 0.0 0.0 0.0 0.0 0.0 0.0 0.0 0.0 0.0 0.0 0.0 0.0 0.0 0.0
 0.0000000      0.0 0.0 0.0 1.0 0.0 0.0 0.0 0.0 0.0 0.0 0.0 0.0 0.0 0.0 0.0 0.0 0.0
 0.0000000      0.0 0.0 0.0 0.0 1.0 0.0 0.0 0.0 0.0 0.0 0.0 0.0 0.0 0.0 0.0 0.0 0.0
 0.0000000      0.0 0.0 0.0 0.0 0.0 1.0 0.0 0.0 0.0 0.0 0.0 0.0 0.0 0.0 0.0 0.0 0.0
 0.0000000      0.0 0.0 0.0 0.0 0.0 0.0 1.0 0.0 0.0 0.0 0.0 0.0 0.0 0.0 0.0 0.0 0.0
 0.0000000      0.0 0.0 0.0 0.0 0.0 0.0 0.0 1.0 0.0 0.0 0.0 0.0 0.0 0.0 0.0 0.0 0.0
 0.0000000      0.0 0.0 0.0 0.0 0.0 0.0 0.0 0.0 1.0 0.0 0.0 0.0 0.0 0.0 0.0 0.0 0.0
 0.0000000      0.0 0.0 0.0 0.0 0.0 0.0 0.0 0.0 0.0 1.0 0.0 0.0 0.0 0.0 0.0 0.0 0.0
 0.0000000      0.0 0.0 0.0 0.0 0.0 0.0 0.0 0.0 0.0 0.0 1.0 0.0 0.0 0.0 0.0 0.0 0.0
 0.0000000      0.0 0.0 0.0 0.0 0.0 0.0 0.0 0.0 0.0 0.0 0.0 1.0 0.0 0.0 0.0 0.0 0.0
 0.0000000      0.0 0.0 0.0 0.0 0.0 0.0 0.0 0.0 0.0 0.0 0.0 0.0 1.0 0.0 0.0 0.0 0.0
 0.0000000      0.0 0.0 0.0 0.0 0.0 0.0 0.0 0.0 0.0 0.0 0.0 0.0 0.0 1.0 0.0 0.0 0.0
 0.0000000      0.0 0.0 0.0 0.0 0.0 0.0 0.0 0.0 0.0 0.0 0.0 0.0 0.0 0.0 1.0 0.0 0.0
 0.0000000      0.0 0.0 0.0 0.0 0.0 0.0 0.0 0.0 0.0 0.0 0.0 0.0 0.0 0.0 0.0 1.0 0.0
 0.0000000      0.0 0.0 0.0 0.0 0.0 0.0 0.0 0.0 0.0 0.0 0.0 0.0 0.0 0.0 0.0 0.0 1.0
* P-type functions
    16    12
15102.2815200 6153.82052067 2507.53549723 1021.76107489 416.34333604
169.65000696 69.12834281 28.16815552 11.47785341 4.67695227
1.90574681 0.7765465 0.31642423 0.12893535 0.05253809
0.02140802
0.004961453207 0.0 0.0 0.0 0.0 0.0 0.0 0.0 0.0 0.0 0.0 0.0
0.005768114381 0.0 0.0 0.0 0.0 0.0 0.0 0.0 0.0 0.0 0.0 0.0
0.029322678113 0.0 0.0 0.0 0.0 0.0 0.0 0.0 0.0 0.0 0.0 0.0
0.086686171199 0.0 0.0 0.0 0.0 0.0 0.0 0.0 0.0 0.0 0.0 0.0
0.254246412466 0.0 0.0 0.0 0.0 0.0 0.0 0.0 0.0 0.0 0.0 0.0
0.0000000      1.0 0.0 0.0 0.0 0.0 0.0 0.0 0.0 0.0 0.0 0.0
0.0000000      0.0 1.0 0.0 0.0 0.0 0.0 0.0 0.0 0.0 0.0 0.0
0.0000000      0.0 0.0 1.0 0.0 0.0 0.0 0.0 0.0 0.0 0.0 0.0
0.0000000      0.0 0.0 0.0 1.0 0.0 0.0 0.0 0.0 0.0 0.0 0.0
0.0000000      0.0 0.0 0.0 0.0 1.0 0.0 0.0 0.0 0.0 0.0 0.0
0.0000000      0.0 0.0 0.0 0.0 0.0 1.0 0.0 0.0 0.0 0.0 0.0
0.0000000      0.0 0.0 0.0 0.0 0.0 0.0 1.0 0.0 0.0 0.0 0.0
0.0000000      0.0 0.0 0.0 0.0 0.0 0.0 0.0 1.0 0.0 0.0 0.0
0.0000000      0.0 0.0 0.0 0.0 0.0 0.0 0.0 0.0 1.0 0.0 0.0
0.0000000      0.0 0.0 0.0 0.0 0.0 0.0 0.0 0.0 0.0 1.0 0.0
0.0000000      0.0 0.0 0.0 0.0 0.0 0.0 0.0 0.0 0.0 0.0 1.0
* D-type functions
    12    9
594.6865006 249.3014709 104.51090336 43.8125330 18.36686878
7.69966595 3.22781507 1.35314833 0.56726001 0.23780387
0.09969094 0.04179193
0.015412378649 0.0 0.0 0.0 0.0 0.0 0.0 0.0 0.0
0.05295165202  0.0 0.0 0.0 0.0 0.0 0.0 0.0 0.0
0.208624721555 0.0 0.0 0.0 0.0 0.0 0.0 0.0 0.0
0.452713117258 0.0 0.0 0.0 0.0 0.0 0.0 0.0 0.0
0.0000000      1.0 0.0 0.0 0.0 0.0 0.0 0.0 0.0
0.0000000      0.0 1.0 0.0 0.0 0.0 0.0 0.0 0.0
0.0000000      0.0 0.0 1.0 0.0 0.0 0.0 0.0 0.0
0.0000000      0.0 0.0 0.0 1.0 0.0 0.0 0.0 0.0
0.0000000      0.0 0.0 0.0 0.0 1.0 0.0 0.0 0.0
0.0000000      0.0 0.0 0.0 0.0 0.0 1.0 0.0 0.0
0.0000000      0.0 0.0 0.0 0.0 0.0 0.0 1.0 0.0
0.0000000      0.0 0.0 0.0 0.0 0.0 0.0 0.0 1.0
* F-type functions
    7    4
81.42520506 32.54282173 13.0062337 5.19813913 2.07751537
0.83031062 0.33184627
0.018517418753 0.0 0.0 0.0
0.078640944818 0.0 0.0 0.0
0.253777579822 0.0 0.0 0.0
0.412114641088 0.0 0.0 0.0
0.0000000      1.0 0.0 0.0
0.0000000      0.0 1.0 0.0
0.0000000      0.0 0.0 1.0
* G-type functions
    3    3
18.6371000 5.7700000 1.78637770898
1.0 0.0 0.0
0.0 1.0 0.0
0.0 0.0 1.0
* H-type functions
    2    2
13.4064000 4.58479532164
1.0 0.0
0.0 1.0

/Dy.sarc2-qzvp-dkh.Aravena.23s16p12d7f3g2h.18s12p9d4f3g2h.
Daniel Aravena, Frank Neese, and Dimitrios A. Pantazis, Improved Segmented All-Electron Relativistically
Contracted Basis Sets for the Lanthanides, J.Chem.Theory Comput. 12, 1148-1156 (2016).
********************************************************************************************************
* DYSPROSIUM       (23s,16p,12d,7f,3g,2h) -> [18s,12p,9d,4f,3g,2h]
* DYSPROSIUM       (23s,16p,12d,7f,3g,2h) -> [18s,12p,9d,4f,3g,2h]
********************************************************************************************************
    66.   5
* S-type functions
    23    18
6818227.0380000 2812728.2618200 1160336.8780100 478674.6337170 197468.0020140
81461.6214707 33605.4231822 13863.2701739 5719.02513691 2359.27368552
973.27292501 401.50500231 165.63315668 68.32876909 28.18771784
11.62830017 4.7970313 1.97892288 0.81636653 0.33677629
0.13893057 0.05731313 0.02364343
 0.002259663318 0.0 0.0 0.0 0.0 0.0 0.0 0.0 0.0 0.0 0.0 0.0 0.0 0.0 0.0 0.0 0.0 0.0
-0.000451055563 0.0 0.0 0.0 0.0 0.0 0.0 0.0 0.0 0.0 0.0 0.0 0.0 0.0 0.0 0.0 0.0 0.0
 0.004467272957 0.0 0.0 0.0 0.0 0.0 0.0 0.0 0.0 0.0 0.0 0.0 0.0 0.0 0.0 0.0 0.0 0.0
 0.003546970566 0.0 0.0 0.0 0.0 0.0 0.0 0.0 0.0 0.0 0.0 0.0 0.0 0.0 0.0 0.0 0.0 0.0
 0.01085793921  0.0 0.0 0.0 0.0 0.0 0.0 0.0 0.0 0.0 0.0 0.0 0.0 0.0 0.0 0.0 0.0 0.0
 0.017676161506 0.0 0.0 0.0 0.0 0.0 0.0 0.0 0.0 0.0 0.0 0.0 0.0 0.0 0.0 0.0 0.0 0.0
 0.0000000      1.0 0.0 0.0 0.0 0.0 0.0 0.0 0.0 0.0 0.0 0.0 0.0 0.0 0.0 0.0 0.0 0.0
 0.0000000      0.0 1.0 0.0 0.0 0.0 0.0 0.0 0.0 0.0 0.0 0.0 0.0 0.0 0.0 0.0 0.0 0.0
 0.0000000      0.0 0.0 1.0 0.0 0.0 0.0 0.0 0.0 0.0 0.0 0.0 0.0 0.0 0.0 0.0 0.0 0.0
 0.0000000      0.0 0.0 0.0 1.0 0.0 0.0 0.0 0.0 0.0 0.0 0.0 0.0 0.0 0.0 0.0 0.0 0.0
 0.0000000      0.0 0.0 0.0 0.0 1.0 0.0 0.0 0.0 0.0 0.0 0.0 0.0 0.0 0.0 0.0 0.0 0.0
 0.0000000      0.0 0.0 0.0 0.0 0.0 1.0 0.0 0.0 0.0 0.0 0.0 0.0 0.0 0.0 0.0 0.0 0.0
 0.0000000      0.0 0.0 0.0 0.0 0.0 0.0 1.0 0.0 0.0 0.0 0.0 0.0 0.0 0.0 0.0 0.0 0.0
 0.0000000      0.0 0.0 0.0 0.0 0.0 0.0 0.0 1.0 0.0 0.0 0.0 0.0 0.0 0.0 0.0 0.0 0.0
 0.0000000      0.0 0.0 0.0 0.0 0.0 0.0 0.0 0.0 1.0 0.0 0.0 0.0 0.0 0.0 0.0 0.0 0.0
 0.0000000      0.0 0.0 0.0 0.0 0.0 0.0 0.0 0.0 0.0 1.0 0.0 0.0 0.0 0.0 0.0 0.0 0.0
 0.0000000      0.0 0.0 0.0 0.0 0.0 0.0 0.0 0.0 0.0 0.0 1.0 0.0 0.0 0.0 0.0 0.0 0.0
 0.0000000      0.0 0.0 0.0 0.0 0.0 0.0 0.0 0.0 0.0 0.0 0.0 1.0 0.0 0.0 0.0 0.0 0.0
 0.0000000      0.0 0.0 0.0 0.0 0.0 0.0 0.0 0.0 0.0 0.0 0.0 0.0 1.0 0.0 0.0 0.0 0.0
 0.0000000      0.0 0.0 0.0 0.0 0.0 0.0 0.0 0.0 0.0 0.0 0.0 0.0 0.0 1.0 0.0 0.0 0.0
 0.0000000      0.0 0.0 0.0 0.0 0.0 0.0 0.0 0.0 0.0 0.0 0.0 0.0 0.0 0.0 1.0 0.0 0.0
 0.0000000      0.0 0.0 0.0 0.0 0.0 0.0 0.0 0.0 0.0 0.0 0.0 0.0 0.0 0.0 0.0 1.0 0.0
 0.0000000      0.0 0.0 0.0 0.0 0.0 0.0 0.0 0.0 0.0 0.0 0.0 0.0 0.0 0.0 0.0 0.0 1.0
* P-type functions
    16    12
15963.6665800 6485.69243802 2634.99655231 1070.54210434 434.93810121
176.70594283 71.79180243 29.16745647 11.85010667 4.81444202
1.95600366 0.79468198 0.3228621 0.13117189 0.0532923
0.02165151
0.004959882059 0.0 0.0 0.0 0.0 0.0 0.0 0.0 0.0 0.0 0.0 0.0
0.005745053293 0.0 0.0 0.0 0.0 0.0 0.0 0.0 0.0 0.0 0.0 0.0
0.029099385759 0.0 0.0 0.0 0.0 0.0 0.0 0.0 0.0 0.0 0.0 0.0
0.085994328561 0.0 0.0 0.0 0.0 0.0 0.0 0.0 0.0 0.0 0.0 0.0
0.253026460393 0.0 0.0 0.0 0.0 0.0 0.0 0.0 0.0 0.0 0.0 0.0
0.0000000      1.0 0.0 0.0 0.0 0.0 0.0 0.0 0.0 0.0 0.0 0.0
0.0000000      0.0 1.0 0.0 0.0 0.0 0.0 0.0 0.0 0.0 0.0 0.0
0.0000000      0.0 0.0 1.0 0.0 0.0 0.0 0.0 0.0 0.0 0.0 0.0
0.0000000      0.0 0.0 0.0 1.0 0.0 0.0 0.0 0.0 0.0 0.0 0.0
0.0000000      0.0 0.0 0.0 0.0 1.0 0.0 0.0 0.0 0.0 0.0 0.0
0.0000000      0.0 0.0 0.0 0.0 0.0 1.0 0.0 0.0 0.0 0.0 0.0
0.0000000      0.0 0.0 0.0 0.0 0.0 0.0 1.0 0.0 0.0 0.0 0.0
0.0000000      0.0 0.0 0.0 0.0 0.0 0.0 0.0 1.0 0.0 0.0 0.0
0.0000000      0.0 0.0 0.0 0.0 0.0 0.0 0.0 0.0 1.0 0.0 0.0
0.0000000      0.0 0.0 0.0 0.0 0.0 0.0 0.0 0.0 0.0 1.0 0.0
0.0000000      0.0 0.0 0.0 0.0 0.0 0.0 0.0 0.0 0.0 0.0 1.0
* D-type functions
    12    9
604.2813023 252.79956239 105.75806086 44.24361866 18.50920655
7.74327999 3.2393817 1.35518718 0.56693915 0.23717757
0.09922264 0.04150954
0.016106623279 0.0 0.0 0.0 0.0 0.0 0.0 0.0 0.0
0.05529739336  0.0 0.0 0.0 0.0 0.0 0.0 0.0 0.0
0.216465548972 0.0 0.0 0.0 0.0 0.0 0.0 0.0 0.0
0.460974801379 0.0 0.0 0.0 0.0 0.0 0.0 0.0 0.0
0.0000000      1.0 0.0 0.0 0.0 0.0 0.0 0.0 0.0
0.0000000      0.0 1.0 0.0 0.0 0.0 0.0 0.0 0.0
0.0000000      0.0 0.0 1.0 0.0 0.0 0.0 0.0 0.0
0.0000000      0.0 0.0 0.0 1.0 0.0 0.0 0.0 0.0
0.0000000      0.0 0.0 0.0 0.0 1.0 0.0 0.0 0.0
0.0000000      0.0 0.0 0.0 0.0 0.0 1.0 0.0 0.0
0.0000000      0.0 0.0 0.0 0.0 0.0 0.0 1.0 0.0
0.0000000      0.0 0.0 0.0 0.0 0.0 0.0 0.0 1.0
* F-type functions
    7    4
82.67878068 32.9933920 13.1661825 5.25403274 2.09664874
0.83667845 0.33388083
0.019760114461 0.0 0.0 0.0
0.083619264853 0.0 0.0 0.0
0.263865026472 0.0 0.0 0.0
0.414649762814 0.0 0.0 0.0
0.0000000      1.0 0.0 0.0
0.0000000      0.0 1.0 0.0
0.0000000      0.0 0.0 1.0
* G-type functions
    3    3
19.4769000 6.0300000 1.86687306502
1.0 0.0 0.0
0.0 1.0 0.0
0.0 0.0 1.0
* H-type functions
    2    2
13.9836000 4.72674418605
1.0 0.0
0.0 1.0

/Ho.sarc2-qzvp-dkh.Aravena.23s16p12d7f3g2h.18s12p9d4f3g2h.
Daniel Aravena, Frank Neese, and Dimitrios A. Pantazis, Improved Segmented All-Electron Relativistically
Contracted Basis Sets for the Lanthanides, J.Chem.Theory Comput. 12, 1148-1156 (2016).
********************************************************************************************************
* HOLMIUM       (23s,16p,12d,7f,3g,2h) -> [18s,12p,9d,4f,3g,2h]
* HOLMIUM       (23s,16p,12d,7f,3g,2h) -> [18s,12p,9d,4f,3g,2h]
********************************************************************************************************
    67.   5
* S-type functions
    23    18
7263979.9690000 2991330.7851800 1231839.8322300 507275.6847200 208897.7913970
86024.7959147 35425.2932148 14588.2519803 6007.49003119 2473.9041061
1018.76182805 419.52946347 172.76360958 71.14462128 29.29758848
12.06484306 4.96834196 2.04597952 0.84254108 0.34696118
0.14287975 0.05883835 0.02422983
 0.002288525832 0.0 0.0 0.0 0.0 0.0 0.0 0.0 0.0 0.0 0.0 0.0 0.0 0.0 0.0 0.0 0.0 0.0
-0.000446563913 0.0 0.0 0.0 0.0 0.0 0.0 0.0 0.0 0.0 0.0 0.0 0.0 0.0 0.0 0.0 0.0 0.0
 0.004518183251 0.0 0.0 0.0 0.0 0.0 0.0 0.0 0.0 0.0 0.0 0.0 0.0 0.0 0.0 0.0 0.0 0.0
 0.003596458225 0.0 0.0 0.0 0.0 0.0 0.0 0.0 0.0 0.0 0.0 0.0 0.0 0.0 0.0 0.0 0.0 0.0
 0.010962402806 0.0 0.0 0.0 0.0 0.0 0.0 0.0 0.0 0.0 0.0 0.0 0.0 0.0 0.0 0.0 0.0 0.0
 0.017796475832 0.0 0.0 0.0 0.0 0.0 0.0 0.0 0.0 0.0 0.0 0.0 0.0 0.0 0.0 0.0 0.0 0.0
 0.0000000      1.0 0.0 0.0 0.0 0.0 0.0 0.0 0.0 0.0 0.0 0.0 0.0 0.0 0.0 0.0 0.0 0.0
 0.0000000      0.0 1.0 0.0 0.0 0.0 0.0 0.0 0.0 0.0 0.0 0.0 0.0 0.0 0.0 0.0 0.0 0.0
 0.0000000      0.0 0.0 1.0 0.0 0.0 0.0 0.0 0.0 0.0 0.0 0.0 0.0 0.0 0.0 0.0 0.0 0.0
 0.0000000      0.0 0.0 0.0 1.0 0.0 0.0 0.0 0.0 0.0 0.0 0.0 0.0 0.0 0.0 0.0 0.0 0.0
 0.0000000      0.0 0.0 0.0 0.0 1.0 0.0 0.0 0.0 0.0 0.0 0.0 0.0 0.0 0.0 0.0 0.0 0.0
 0.0000000      0.0 0.0 0.0 0.0 0.0 1.0 0.0 0.0 0.0 0.0 0.0 0.0 0.0 0.0 0.0 0.0 0.0
 0.0000000      0.0 0.0 0.0 0.0 0.0 0.0 1.0 0.0 0.0 0.0 0.0 0.0 0.0 0.0 0.0 0.0 0.0
 0.0000000      0.0 0.0 0.0 0.0 0.0 0.0 0.0 1.0 0.0 0.0 0.0 0.0 0.0 0.0 0.0 0.0 0.0
 0.0000000      0.0 0.0 0.0 0.0 0.0 0.0 0.0 0.0 1.0 0.0 0.0 0.0 0.0 0.0 0.0 0.0 0.0
 0.0000000      0.0 0.0 0.0 0.0 0.0 0.0 0.0 0.0 0.0 1.0 0.0 0.0 0.0 0.0 0.0 0.0 0.0
 0.0000000      0.0 0.0 0.0 0.0 0.0 0.0 0.0 0.0 0.0 0.0 1.0 0.0 0.0 0.0 0.0 0.0 0.0
 0.0000000      0.0 0.0 0.0 0.0 0.0 0.0 0.0 0.0 0.0 0.0 0.0 1.0 0.0 0.0 0.0 0.0 0.0
 0.0000000      0.0 0.0 0.0 0.0 0.0 0.0 0.0 0.0 0.0 0.0 0.0 0.0 1.0 0.0 0.0 0.0 0.0
 0.0000000      0.0 0.0 0.0 0.0 0.0 0.0 0.0 0.0 0.0 0.0 0.0 0.0 0.0 1.0 0.0 0.0 0.0
 0.0000000      0.0 0.0 0.0 0.0 0.0 0.0 0.0 0.0 0.0 0.0 0.0 0.0 0.0 0.0 1.0 0.0 0.0
 0.0000000      0.0 0.0 0.0 0.0 0.0 0.0 0.0 0.0 0.0 0.0 0.0 0.0 0.0 0.0 0.0 1.0 0.0
 0.0000000      0.0 0.0 0.0 0.0 0.0 0.0 0.0 0.0 0.0 0.0 0.0 0.0 0.0 0.0 0.0 0.0 1.0
* P-type functions
    16    12
16777.0076100 6799.37748902 2755.64840363 1116.80784553 452.61934076
183.43734641 74.34339859 30.12985644 12.21101357 4.94887365
2.00567711 0.81285984 0.32943544 0.13351344 0.05411026
0.02192978
0.004989641358 0.0 0.0 0.0 0.0 0.0 0.0 0.0 0.0 0.0 0.0 0.0
0.005751952009 0.0 0.0 0.0 0.0 0.0 0.0 0.0 0.0 0.0 0.0 0.0
0.029043921054 0.0 0.0 0.0 0.0 0.0 0.0 0.0 0.0 0.0 0.0 0.0
0.085684641123 0.0 0.0 0.0 0.0 0.0 0.0 0.0 0.0 0.0 0.0 0.0
0.252550786354 0.0 0.0 0.0 0.0 0.0 0.0 0.0 0.0 0.0 0.0 0.0
0.0000000      1.0 0.0 0.0 0.0 0.0 0.0 0.0 0.0 0.0 0.0 0.0
0.0000000      0.0 1.0 0.0 0.0 0.0 0.0 0.0 0.0 0.0 0.0 0.0
0.0000000      0.0 0.0 1.0 0.0 0.0 0.0 0.0 0.0 0.0 0.0 0.0
0.0000000      0.0 0.0 0.0 1.0 0.0 0.0 0.0 0.0 0.0 0.0 0.0
0.0000000      0.0 0.0 0.0 0.0 1.0 0.0 0.0 0.0 0.0 0.0 0.0
0.0000000      0.0 0.0 0.0 0.0 0.0 1.0 0.0 0.0 0.0 0.0 0.0
0.0000000      0.0 0.0 0.0 0.0 0.0 0.0 1.0 0.0 0.0 0.0 0.0
0.0000000      0.0 0.0 0.0 0.0 0.0 0.0 0.0 1.0 0.0 0.0 0.0
0.0000000      0.0 0.0 0.0 0.0 0.0 0.0 0.0 0.0 1.0 0.0 0.0
0.0000000      0.0 0.0 0.0 0.0 0.0 0.0 0.0 0.0 0.0 1.0 0.0
0.0000000      0.0 0.0 0.0 0.0 0.0 0.0 0.0 0.0 0.0 0.0 1.0
* D-type functions
    12    9
612.5054181 255.67089153 106.7216760 44.54756683 18.59496388
7.76187582 3.23994801 1.35241317 0.56452183 0.23564167
0.09836112 0.04105772
0.016891207934 0.0 0.0 0.0 0.0 0.0 0.0 0.0 0.0
0.057931160292 0.0 0.0 0.0 0.0 0.0 0.0 0.0 0.0
0.225152707864 0.0 0.0 0.0 0.0 0.0 0.0 0.0 0.0
0.469313820089 0.0 0.0 0.0 0.0 0.0 0.0 0.0 0.0
0.0000000      1.0 0.0 0.0 0.0 0.0 0.0 0.0 0.0
0.0000000      0.0 1.0 0.0 0.0 0.0 0.0 0.0 0.0
0.0000000      0.0 0.0 1.0 0.0 0.0 0.0 0.0 0.0
0.0000000      0.0 0.0 0.0 1.0 0.0 0.0 0.0 0.0
0.0000000      0.0 0.0 0.0 0.0 1.0 0.0 0.0 0.0
0.0000000      0.0 0.0 0.0 0.0 0.0 1.0 0.0 0.0
0.0000000      0.0 0.0 0.0 0.0 0.0 0.0 1.0 0.0
0.0000000      0.0 0.0 0.0 0.0 0.0 0.0 0.0 1.0
* F-type functions
    7    4
87.06629532 34.58465475 13.73778843 5.45695287 2.16762216
0.86102738 0.34201908
0.019619145977 0.0 0.0 0.0
0.084695879943 0.0 0.0 0.0
0.267563990836 0.0 0.0 0.0
0.41678520838  0.0 0.0 0.0
0.0000000      1.0 0.0 0.0
0.0000000      0.0 1.0 0.0
0.0000000      0.0 0.0 1.0
* G-type functions
    3    3
19.5888000 6.1600000 1.93710691824
1.0 0.0 0.0
0.0 1.0 0.0
0.0 0.0 1.0
* H-type functions
    2    2
14.5684000 4.92441860465
1.0 0.0
0.0 1.0

/Er.sarc2-qzvp-dkh.Aravena.23s16p12d7f3g2h.18s12p9d4f3g2h.
Daniel Aravena, Frank Neese, and Dimitrios A. Pantazis, Improved Segmented All-Electron Relativistically
Contracted Basis Sets for the Lanthanides, J.Chem.Theory Comput. 12, 1148-1156 (2016).
********************************************************************************************************
* ERBIUM       (23s,16p,12d,7f,3g,2h) -> [18s,12p,9d,4f,3g,2h]
* ERBIUM       (23s,16p,12d,7f,3g,2h) -> [18s,12p,9d,4f,3g,2h]
********************************************************************************************************
    68.   5
* S-type functions
    23    18
8067496.7530000 3309600.4258900 1357726.6052200 556992.1734640 228499.8173480
93739.4976364 38455.5817993 15775.9728696 6471.91664608 2655.03151027
1089.19701937 446.83091045 183.30738974 75.19980903 30.84988164
12.65581934 5.19190851 2.12992247 0.8737769 0.35845721
0.14705307 0.06032688 0.02474843
 0.002248164873 0.0 0.0 0.0 0.0 0.0 0.0 0.0 0.0 0.0 0.0 0.0 0.0 0.0 0.0 0.0 0.0 0.0
-0.000411442644 0.0 0.0 0.0 0.0 0.0 0.0 0.0 0.0 0.0 0.0 0.0 0.0 0.0 0.0 0.0 0.0 0.0
 0.004437849152 0.0 0.0 0.0 0.0 0.0 0.0 0.0 0.0 0.0 0.0 0.0 0.0 0.0 0.0 0.0 0.0 0.0
 0.003586655892 0.0 0.0 0.0 0.0 0.0 0.0 0.0 0.0 0.0 0.0 0.0 0.0 0.0 0.0 0.0 0.0 0.0
 0.010804686302 0.0 0.0 0.0 0.0 0.0 0.0 0.0 0.0 0.0 0.0 0.0 0.0 0.0 0.0 0.0 0.0 0.0
 0.017556163996 0.0 0.0 0.0 0.0 0.0 0.0 0.0 0.0 0.0 0.0 0.0 0.0 0.0 0.0 0.0 0.0 0.0
 0.0000000      1.0 0.0 0.0 0.0 0.0 0.0 0.0 0.0 0.0 0.0 0.0 0.0 0.0 0.0 0.0 0.0 0.0
 0.0000000      0.0 1.0 0.0 0.0 0.0 0.0 0.0 0.0 0.0 0.0 0.0 0.0 0.0 0.0 0.0 0.0 0.0
 0.0000000      0.0 0.0 1.0 0.0 0.0 0.0 0.0 0.0 0.0 0.0 0.0 0.0 0.0 0.0 0.0 0.0 0.0
 0.0000000      0.0 0.0 0.0 1.0 0.0 0.0 0.0 0.0 0.0 0.0 0.0 0.0 0.0 0.0 0.0 0.0 0.0
 0.0000000      0.0 0.0 0.0 0.0 1.0 0.0 0.0 0.0 0.0 0.0 0.0 0.0 0.0 0.0 0.0 0.0 0.0
 0.0000000      0.0 0.0 0.0 0.0 0.0 1.0 0.0 0.0 0.0 0.0 0.0 0.0 0.0 0.0 0.0 0.0 0.0
 0.0000000      0.0 0.0 0.0 0.0 0.0 0.0 1.0 0.0 0.0 0.0 0.0 0.0 0.0 0.0 0.0 0.0 0.0
 0.0000000      0.0 0.0 0.0 0.0 0.0 0.0 0.0 1.0 0.0 0.0 0.0 0.0 0.0 0.0 0.0 0.0 0.0
 0.0000000      0.0 0.0 0.0 0.0 0.0 0.0 0.0 0.0 1.0 0.0 0.0 0.0 0.0 0.0 0.0 0.0 0.0
 0.0000000      0.0 0.0 0.0 0.0 0.0 0.0 0.0 0.0 0.0 1.0 0.0 0.0 0.0 0.0 0.0 0.0 0.0
 0.0000000      0.0 0.0 0.0 0.0 0.0 0.0 0.0 0.0 0.0 0.0 1.0 0.0 0.0 0.0 0.0 0.0 0.0
 0.0000000      0.0 0.0 0.0 0.0 0.0 0.0 0.0 0.0 0.0 0.0 0.0 1.0 0.0 0.0 0.0 0.0 0.0
 0.0000000      0.0 0.0 0.0 0.0 0.0 0.0 0.0 0.0 0.0 0.0 0.0 0.0 1.0 0.0 0.0 0.0 0.0
 0.0000000      0.0 0.0 0.0 0.0 0.0 0.0 0.0 0.0 0.0 0.0 0.0 0.0 0.0 1.0 0.0 0.0 0.0
 0.0000000      0.0 0.0 0.0 0.0 0.0 0.0 0.0 0.0 0.0 0.0 0.0 0.0 0.0 0.0 1.0 0.0 0.0
 0.0000000      0.0 0.0 0.0 0.0 0.0 0.0 0.0 0.0 0.0 0.0 0.0 0.0 0.0 0.0 0.0 1.0 0.0
 0.0000000      0.0 0.0 0.0 0.0 0.0 0.0 0.0 0.0 0.0 0.0 0.0 0.0 0.0 0.0 0.0 0.0 1.0
* P-type functions
    16    12
17747.4287600 7171.40790229 2897.83337049 1170.96089882 473.16365411
191.19668624 77.25904666 31.21895263 12.61500168 5.09748899
2.05980107 0.83232754 0.33632817 0.1359040 0.05491629
0.02219066
0.004981557564 0.0 0.0 0.0 0.0 0.0 0.0 0.0 0.0 0.0 0.0 0.0
0.005721278381 0.0 0.0 0.0 0.0 0.0 0.0 0.0 0.0 0.0 0.0 0.0
0.028776847007 0.0 0.0 0.0 0.0 0.0 0.0 0.0 0.0 0.0 0.0 0.0
0.084852569507 0.0 0.0 0.0 0.0 0.0 0.0 0.0 0.0 0.0 0.0 0.0
0.250925818066 0.0 0.0 0.0 0.0 0.0 0.0 0.0 0.0 0.0 0.0 0.0
0.0000000      1.0 0.0 0.0 0.0 0.0 0.0 0.0 0.0 0.0 0.0 0.0
0.0000000      0.0 1.0 0.0 0.0 0.0 0.0 0.0 0.0 0.0 0.0 0.0
0.0000000      0.0 0.0 1.0 0.0 0.0 0.0 0.0 0.0 0.0 0.0 0.0
0.0000000      0.0 0.0 0.0 1.0 0.0 0.0 0.0 0.0 0.0 0.0 0.0
0.0000000      0.0 0.0 0.0 0.0 1.0 0.0 0.0 0.0 0.0 0.0 0.0
0.0000000      0.0 0.0 0.0 0.0 0.0 1.0 0.0 0.0 0.0 0.0 0.0
0.0000000      0.0 0.0 0.0 0.0 0.0 0.0 1.0 0.0 0.0 0.0 0.0
0.0000000      0.0 0.0 0.0 0.0 0.0 0.0 0.0 1.0 0.0 0.0 0.0
0.0000000      0.0 0.0 0.0 0.0 0.0 0.0 0.0 0.0 1.0 0.0 0.0
0.0000000      0.0 0.0 0.0 0.0 0.0 0.0 0.0 0.0 0.0 1.0 0.0
0.0000000      0.0 0.0 0.0 0.0 0.0 0.0 0.0 0.0 0.0 0.0 1.0
* D-type functions
    12    9
616.6174759 256.90712122 107.03762302 44.59608861 18.58048659
7.74136236 3.22535639 1.34381048 0.55988436 0.23326987
0.09718941 0.04049294
0.017917713557 0.0 0.0 0.0 0.0 0.0 0.0 0.0 0.0
0.061212981363 0.0 0.0 0.0 0.0 0.0 0.0 0.0 0.0
0.235571735187 0.0 0.0 0.0 0.0 0.0 0.0 0.0 0.0
0.477782374481 0.0 0.0 0.0 0.0 0.0 0.0 0.0 0.0
0.0000000      1.0 0.0 0.0 0.0 0.0 0.0 0.0 0.0
0.0000000      0.0 1.0 0.0 0.0 0.0 0.0 0.0 0.0
0.0000000      0.0 0.0 1.0 0.0 0.0 0.0 0.0 0.0
0.0000000      0.0 0.0 0.0 1.0 0.0 0.0 0.0 0.0
0.0000000      0.0 0.0 0.0 0.0 1.0 0.0 0.0 0.0
0.0000000      0.0 0.0 0.0 0.0 0.0 1.0 0.0 0.0
0.0000000      0.0 0.0 0.0 0.0 0.0 0.0 1.0 0.0
0.0000000      0.0 0.0 0.0 0.0 0.0 0.0 0.0 1.0
* F-type functions
    7    4
89.88684045 35.58589532 14.08833528 5.57752416 2.2081229
0.87418837 0.34608821
0.020194093953 0.0 0.0 0.0
0.087885396111 0.0 0.0 0.0
0.274609998748 0.0 0.0 0.0
0.41925928485  0.0 0.0 0.0
0.0000000      1.0 0.0 0.0
0.0000000      0.0 1.0 0.0
0.0000000      0.0 0.0 1.0
* G-type functions
    3    3
20.7350000 6.5000000 2.03761755486
1.0 0.0 0.0
0.0 1.0 0.0
0.0 0.0 1.0
* H-type functions
    2    2
15.1016000 5.10465116279
1.0 0.0
0.0 1.0

/Tm.sarc2-qzvp-dkh.Aravena.23s16p12d7f3g2h.18s12p9d4f3g2h.
Daniel Aravena, Frank Neese, and Dimitrios A. Pantazis, Improved Segmented All-Electron Relativistically
Contracted Basis Sets for the Lanthanides, J.Chem.Theory Comput. 12, 1148-1156 (2016).
********************************************************************************************************
* THULIUM       (23s,16p,12d,7f,3g,2h) -> [18s,12p,9d,4f,3g,2h]
* THULIUM       (23s,16p,12d,7f,3g,2h) -> [18s,12p,9d,4f,3g,2h]
********************************************************************************************************
    69.   5
* S-type functions
    23    18
8211204.9480000 3368068.9479000 1381513.2504400 566668.5838920 232435.9059650
95340.4722224 39106.7189290 16040.7792173 6579.60076797 2698.81816085
1107.00021509 454.06893061 186.24982266 76.3958820 31.33603406
12.85340263 5.27220384 2.16255058 0.88703418 0.36384335
0.14924113 0.06121567 0.02510942
 0.002352350661 0.0 0.0 0.0 0.0 0.0 0.0 0.0 0.0 0.0 0.0 0.0 0.0 0.0 0.0 0.0 0.0 0.0
-0.000434238145 0.0 0.0 0.0 0.0 0.0 0.0 0.0 0.0 0.0 0.0 0.0 0.0 0.0 0.0 0.0 0.0 0.0
 0.004633230585 0.0 0.0 0.0 0.0 0.0 0.0 0.0 0.0 0.0 0.0 0.0 0.0 0.0 0.0 0.0 0.0 0.0
 0.003717310612 0.0 0.0 0.0 0.0 0.0 0.0 0.0 0.0 0.0 0.0 0.0 0.0 0.0 0.0 0.0 0.0 0.0
 0.011217920134 0.0 0.0 0.0 0.0 0.0 0.0 0.0 0.0 0.0 0.0 0.0 0.0 0.0 0.0 0.0 0.0 0.0
 0.018132861361 0.0 0.0 0.0 0.0 0.0 0.0 0.0 0.0 0.0 0.0 0.0 0.0 0.0 0.0 0.0 0.0 0.0
 0.0000000      1.0 0.0 0.0 0.0 0.0 0.0 0.0 0.0 0.0 0.0 0.0 0.0 0.0 0.0 0.0 0.0 0.0
 0.0000000      0.0 1.0 0.0 0.0 0.0 0.0 0.0 0.0 0.0 0.0 0.0 0.0 0.0 0.0 0.0 0.0 0.0
 0.0000000      0.0 0.0 1.0 0.0 0.0 0.0 0.0 0.0 0.0 0.0 0.0 0.0 0.0 0.0 0.0 0.0 0.0
 0.0000000      0.0 0.0 0.0 1.0 0.0 0.0 0.0 0.0 0.0 0.0 0.0 0.0 0.0 0.0 0.0 0.0 0.0
 0.0000000      0.0 0.0 0.0 0.0 1.0 0.0 0.0 0.0 0.0 0.0 0.0 0.0 0.0 0.0 0.0 0.0 0.0
 0.0000000      0.0 0.0 0.0 0.0 0.0 1.0 0.0 0.0 0.0 0.0 0.0 0.0 0.0 0.0 0.0 0.0 0.0
 0.0000000      0.0 0.0 0.0 0.0 0.0 0.0 1.0 0.0 0.0 0.0 0.0 0.0 0.0 0.0 0.0 0.0 0.0
 0.0000000      0.0 0.0 0.0 0.0 0.0 0.0 0.0 1.0 0.0 0.0 0.0 0.0 0.0 0.0 0.0 0.0 0.0
 0.0000000      0.0 0.0 0.0 0.0 0.0 0.0 0.0 0.0 1.0 0.0 0.0 0.0 0.0 0.0 0.0 0.0 0.0
 0.0000000      0.0 0.0 0.0 0.0 0.0 0.0 0.0 0.0 0.0 1.0 0.0 0.0 0.0 0.0 0.0 0.0 0.0
 0.0000000      0.0 0.0 0.0 0.0 0.0 0.0 0.0 0.0 0.0 0.0 1.0 0.0 0.0 0.0 0.0 0.0 0.0
 0.0000000      0.0 0.0 0.0 0.0 0.0 0.0 0.0 0.0 0.0 0.0 0.0 1.0 0.0 0.0 0.0 0.0 0.0
 0.0000000      0.0 0.0 0.0 0.0 0.0 0.0 0.0 0.0 0.0 0.0 0.0 0.0 1.0 0.0 0.0 0.0 0.0
 0.0000000      0.0 0.0 0.0 0.0 0.0 0.0 0.0 0.0 0.0 0.0 0.0 0.0 0.0 1.0 0.0 0.0 0.0
 0.0000000      0.0 0.0 0.0 0.0 0.0 0.0 0.0 0.0 0.0 0.0 0.0 0.0 0.0 0.0 1.0 0.0 0.0
 0.0000000      0.0 0.0 0.0 0.0 0.0 0.0 0.0 0.0 0.0 0.0 0.0 0.0 0.0 0.0 0.0 1.0 0.0
 0.0000000      0.0 0.0 0.0 0.0 0.0 0.0 0.0 0.0 0.0 0.0 0.0 0.0 0.0 0.0 0.0 0.0 1.0
* P-type functions
    16    12
18686.8427600 7530.95308798 3035.03674439 1223.14505644 492.93763308
198.65796687 80.06081328 32.26517378 13.00313345 5.24037095
2.11191309 0.85111854 0.34300785 0.13823502 0.05570986
0.02245154
0.004998306235 0.0 0.0 0.0 0.0 0.0 0.0 0.0 0.0 0.0 0.0 0.0
0.005716813706 0.0 0.0 0.0 0.0 0.0 0.0 0.0 0.0 0.0 0.0 0.0
0.028650892033 0.0 0.0 0.0 0.0 0.0 0.0 0.0 0.0 0.0 0.0 0.0
0.084360556373 0.0 0.0 0.0 0.0 0.0 0.0 0.0 0.0 0.0 0.0 0.0
0.250000254216 0.0 0.0 0.0 0.0 0.0 0.0 0.0 0.0 0.0 0.0 0.0
0.0000000      1.0 0.0 0.0 0.0 0.0 0.0 0.0 0.0 0.0 0.0 0.0
0.0000000      0.0 1.0 0.0 0.0 0.0 0.0 0.0 0.0 0.0 0.0 0.0
0.0000000      0.0 0.0 1.0 0.0 0.0 0.0 0.0 0.0 0.0 0.0 0.0
0.0000000      0.0 0.0 0.0 1.0 0.0 0.0 0.0 0.0 0.0 0.0 0.0
0.0000000      0.0 0.0 0.0 0.0 1.0 0.0 0.0 0.0 0.0 0.0 0.0
0.0000000      0.0 0.0 0.0 0.0 0.0 1.0 0.0 0.0 0.0 0.0 0.0
0.0000000      0.0 0.0 0.0 0.0 0.0 0.0 1.0 0.0 0.0 0.0 0.0
0.0000000      0.0 0.0 0.0 0.0 0.0 0.0 0.0 1.0 0.0 0.0 0.0
0.0000000      0.0 0.0 0.0 0.0 0.0 0.0 0.0 0.0 1.0 0.0 0.0
0.0000000      0.0 0.0 0.0 0.0 0.0 0.0 0.0 0.0 0.0 1.0 0.0
0.0000000      0.0 0.0 0.0 0.0 0.0 0.0 0.0 0.0 0.0 0.0 1.0
* D-type functions
    12    9
619.3588478 257.28266534 106.87563457 44.39631115 18.44229933
7.66096092 3.18237553 1.32196393 0.54914595 0.22811612
0.0947598 0.03936337
0.019069321524 0.0 0.0 0.0 0.0 0.0 0.0 0.0 0.0
0.065049194853 0.0 0.0 0.0 0.0 0.0 0.0 0.0 0.0
0.247733810749 0.0 0.0 0.0 0.0 0.0 0.0 0.0 0.0
0.486821421    0.0 0.0 0.0 0.0 0.0 0.0 0.0 0.0
0.0000000      1.0 0.0 0.0 0.0 0.0 0.0 0.0 0.0
0.0000000      0.0 1.0 0.0 0.0 0.0 0.0 0.0 0.0
0.0000000      0.0 0.0 1.0 0.0 0.0 0.0 0.0 0.0
0.0000000      0.0 0.0 0.0 1.0 0.0 0.0 0.0 0.0
0.0000000      0.0 0.0 0.0 0.0 1.0 0.0 0.0 0.0
0.0000000      0.0 0.0 0.0 0.0 0.0 1.0 0.0 0.0
0.0000000      0.0 0.0 0.0 0.0 0.0 0.0 1.0 0.0
0.0000000      0.0 0.0 0.0 0.0 0.0 0.0 0.0 1.0
* F-type functions
    7    4
96.78150633 38.10164697 15.00013336 5.90536155 2.32486566
0.91527001 0.36033015
0.019111860546 0.0 0.0 0.0
0.085928213865 0.0 0.0 0.0
0.273326912487 0.0 0.0 0.0
0.420993660613 0.0 0.0 0.0
0.0000000      1.0 0.0 0.0
0.0000000      0.0 1.0 0.0
0.0000000      0.0 0.0 1.0
* G-type functions
    3    3
21.5644000 6.7600000 2.11912225705
1.0 0.0 0.0
0.0 1.0 0.0
0.0 0.0 1.0
* H-type functions
    2    2
15.8641000 5.30057803468
1.0 0.0
0.0 1.0

/Yb.sarc2-qzvp-dkh.Aravena.23s16p12d7f3g2h.18s12p9d4f3g2h.
Daniel Aravena, Frank Neese, and Dimitrios A. Pantazis, Improved Segmented All-Electron Relativistically
Contracted Basis Sets for the Lanthanides, J.Chem.Theory Comput. 12, 1148-1156 (2016).
********************************************************************************************************
* YTTERBIUM       (23s,16p,12d,7f,3g,2h) -> [18s,12p,9d,4f,3g,2h]
* YTTERBIUM       (23s,16p,12d,7f,3g,2h) -> [18s,12p,9d,4f,3g,2h]
********************************************************************************************************
    70.   5
* S-type functions
    23    18
8712676.9960000 3567887.8576700 1461069.1720600 598315.6451910 245013.4587240
100334.3225910 41087.4420623 16825.5274130 6890.14352115 2821.550646030
1155.4400897 473.15890032 193.7611019 79.34620818 32.49269689
13.30593327 5.44885088 2.2313336 0.91374305 0.37418267
0.15322981 0.06274843 0.02569582
 0.002388797142 0.0 0.0 0.0 0.0 0.0 0.0 0.0 0.0 0.0 0.0 0.0 0.0 0.0 0.0 0.0 0.0 0.0
-0.000431563533 0.0 0.0 0.0 0.0 0.0 0.0 0.0 0.0 0.0 0.0 0.0 0.0 0.0 0.0 0.0 0.0 0.0
 0.004698255476 0.0 0.0 0.0 0.0 0.0 0.0 0.0 0.0 0.0 0.0 0.0 0.0 0.0 0.0 0.0 0.0 0.0
 0.003775502422 0.0 0.0 0.0 0.0 0.0 0.0 0.0 0.0 0.0 0.0 0.0 0.0 0.0 0.0 0.0 0.0 0.0
 0.01135170475  0.0 0.0 0.0 0.0 0.0 0.0 0.0 0.0 0.0 0.0 0.0 0.0 0.0 0.0 0.0 0.0 0.0
 0.018295335794 0.0 0.0 0.0 0.0 0.0 0.0 0.0 0.0 0.0 0.0 0.0 0.0 0.0 0.0 0.0 0.0 0.0
 0.0000000      1.0 0.0 0.0 0.0 0.0 0.0 0.0 0.0 0.0 0.0 0.0 0.0 0.0 0.0 0.0 0.0 0.0
 0.0000000      0.0 1.0 0.0 0.0 0.0 0.0 0.0 0.0 0.0 0.0 0.0 0.0 0.0 0.0 0.0 0.0 0.0
 0.0000000      0.0 0.0 1.0 0.0 0.0 0.0 0.0 0.0 0.0 0.0 0.0 0.0 0.0 0.0 0.0 0.0 0.0
 0.0000000      0.0 0.0 0.0 1.0 0.0 0.0 0.0 0.0 0.0 0.0 0.0 0.0 0.0 0.0 0.0 0.0 0.0
 0.0000000      0.0 0.0 0.0 0.0 1.0 0.0 0.0 0.0 0.0 0.0 0.0 0.0 0.0 0.0 0.0 0.0 0.0
 0.0000000      0.0 0.0 0.0 0.0 0.0 1.0 0.0 0.0 0.0 0.0 0.0 0.0 0.0 0.0 0.0 0.0 0.0
 0.0000000      0.0 0.0 0.0 0.0 0.0 0.0 1.0 0.0 0.0 0.0 0.0 0.0 0.0 0.0 0.0 0.0 0.0
 0.0000000      0.0 0.0 0.0 0.0 0.0 0.0 0.0 1.0 0.0 0.0 0.0 0.0 0.0 0.0 0.0 0.0 0.0
 0.0000000      0.0 0.0 0.0 0.0 0.0 0.0 0.0 0.0 1.0 0.0 0.0 0.0 0.0 0.0 0.0 0.0 0.0
 0.0000000      0.0 0.0 0.0 0.0 0.0 0.0 0.0 0.0 0.0 1.0 0.0 0.0 0.0 0.0 0.0 0.0 0.0
 0.0000000      0.0 0.0 0.0 0.0 0.0 0.0 0.0 0.0 0.0 0.0 1.0 0.0 0.0 0.0 0.0 0.0 0.0
 0.0000000      0.0 0.0 0.0 0.0 0.0 0.0 0.0 0.0 0.0 0.0 0.0 1.0 0.0 0.0 0.0 0.0 0.0
 0.0000000      0.0 0.0 0.0 0.0 0.0 0.0 0.0 0.0 0.0 0.0 0.0 0.0 1.0 0.0 0.0 0.0 0.0
 0.0000000      0.0 0.0 0.0 0.0 0.0 0.0 0.0 0.0 0.0 0.0 0.0 0.0 0.0 1.0 0.0 0.0 0.0
 0.0000000      0.0 0.0 0.0 0.0 0.0 0.0 0.0 0.0 0.0 0.0 0.0 0.0 0.0 0.0 1.0 0.0 0.0
 0.0000000      0.0 0.0 0.0 0.0 0.0 0.0 0.0 0.0 0.0 0.0 0.0 0.0 0.0 0.0 0.0 1.0 0.0
 0.0000000      0.0 0.0 0.0 0.0 0.0 0.0 0.0 0.0 0.0 0.0 0.0 0.0 0.0 0.0 0.0 0.0 1.0
* P-type functions
    16    12
19664.0786600 7903.18007417 3176.36317291 1276.61054304 513.08190842
206.21249463 82.87876115 33.30976168 13.38750975 5.380567380
2.16250116 0.86912977 0.34931151
0.14039162
0.05642472
0.02267763
0.005017164706 0.0 0.0 0.0 0.0 0.0 0.0 0.0 0.0 0.0 0.0 0.0
0.00571767114  0.0 0.0 0.0 0.0 0.0 0.0 0.0 0.0 0.0 0.0 0.0
0.028546397661 0.0 0.0 0.0 0.0 0.0 0.0 0.0 0.0 0.0 0.0 0.0
0.083932363441 0.0 0.0 0.0 0.0 0.0 0.0 0.0 0.0 0.0 0.0 0.0
0.249218574808 0.0 0.0 0.0 0.0 0.0 0.0 0.0 0.0 0.0 0.0 0.0
0.0000000      1.0 0.0 0.0 0.0 0.0 0.0 0.0 0.0 0.0 0.0 0.0
0.0000000      0.0 1.0 0.0 0.0 0.0 0.0 0.0 0.0 0.0 0.0 0.0
0.0000000      0.0 0.0 1.0 0.0 0.0 0.0 0.0 0.0 0.0 0.0 0.0
0.0000000      0.0 0.0 0.0 1.0 0.0 0.0 0.0 0.0 0.0 0.0 0.0
0.0000000      0.0 0.0 0.0 0.0 1.0 0.0 0.0 0.0 0.0 0.0 0.0
0.0000000      0.0 0.0 0.0 0.0 0.0 1.0 0.0 0.0 0.0 0.0 0.0
0.0000000      0.0 0.0 0.0 0.0 0.0 0.0 1.0 0.0 0.0 0.0 0.0
0.0000000      0.0 0.0 0.0 0.0 0.0 0.0 0.0 1.0 0.0 0.0 0.0
0.0000000      0.0 0.0 0.0 0.0 0.0 0.0 0.0 0.0 1.0 0.0 0.0
0.0000000      0.0 0.0 0.0 0.0 0.0 0.0 0.0 0.0 0.0 1.0 0.0
0.0000000      0.0 0.0 0.0 0.0 0.0 0.0 0.0 0.0 0.0 0.0 1.0
* D-type functions
    12    9
619.3588478 256.70574279 106.39686285 44.09832168 18.27743717
7.57545178 3.13979849 1.30135269 0.53937182 0.22355351
0.09265625 0.03840325
0.020432670708 0.0 0.0 0.0 0.0 0.0 0.0 0.0 0.0
0.069355954247 0.0 0.0 0.0 0.0 0.0 0.0 0.0 0.0
0.260821658087 0.0 0.0 0.0 0.0 0.0 0.0 0.0 0.0
0.494557647092 0.0 0.0 0.0 0.0 0.0 0.0 0.0 0.0
0.0000000      1.0 0.0 0.0 0.0 0.0 0.0 0.0 0.0
0.0000000      0.0 1.0 0.0 0.0 0.0 0.0 0.0 0.0
0.0000000      0.0 0.0 1.0 0.0 0.0 0.0 0.0 0.0
0.0000000      0.0 0.0 0.0 1.0 0.0 0.0 0.0 0.0
0.0000000      0.0 0.0 0.0 0.0 1.0 0.0 0.0 0.0
0.0000000      0.0 0.0 0.0 0.0 0.0 1.0 0.0 0.0
0.0000000      0.0 0.0 0.0 0.0 0.0 0.0 1.0 0.0
0.0000000      0.0 0.0 0.0 0.0 0.0 0.0 0.0 1.0
* F-type functions
    7    4
95.84132462 37.79294835 14.90282976 5.87660779 2.31731287
0.91378209 0.36033015
0.021215388261 0.0 0.0 0.0
0.093237610939 0.0 0.0 0.0
0.285697057819 0.0 0.0 0.0
0.422084057484 0.0 0.0 0.0
0.0000000      1.0 0.0 0.0
0.0000000      0.0 1.0 0.0
0.0000000      0.0 0.0 1.0
* G-type functions
    3    3
22.4895000 7.0500000 2.21003134796
1.0 0.0 0.0
0.0 1.0 0.0
0.0 0.0 1.0
* H-type functions
    2    2
16.5388000 5.52601156069
1.0 0.0
0.0 1.0

/Lu.sarc2-qzvp-dkh.Aravena.23s16p12d7f3g2h.18s12p9d4f3g2h.
Daniel Aravena, Frank Neese, and Dimitrios A. Pantazis, Improved Segmented All-Electron Relativistically
Contracted Basis Sets for the Lanthanides, J.Chem.Theory Comput. 12, 1148-1156 (2016).
********************************************************************************************************
* LUTETIUM       (23s,16p,12d,7f,3g,2h) -> [18s,12p,9d,4f,3g,2h]
* LUTETIUM       (23s,16p,12d,7f,3g,2h) -> [18s,12p,9d,4f,3g,2h]
********************************************************************************************************
    71.   5
* S-type functions
    23    18
9214149.0440000 3785675.2396700 1555361.9712300 639027.5732560 262547.3985700
107868.7984380 44318.3887553 18208.4125372 7481.00949603 3073.60693664
1262.80545506 518.82939172 213.16342643 87.57916782 35.9823013
14.78349291 6.07386562 2.49547544 1.02527749 0.42123994
0.17306835 0.07110592 0.02921419
 0.002443454077 0.0 0.0 0.0 0.0 0.0 0.0 0.0 0.0 0.0 0.0 0.0 0.0 0.0 0.0 0.0 0.0 0.0
-0.000478689856 0.0 0.0 0.0 0.0 0.0 0.0 0.0 0.0 0.0 0.0 0.0 0.0 0.0 0.0 0.0 0.0 0.0
 0.004780511848 0.0 0.0 0.0 0.0 0.0 0.0 0.0 0.0 0.0 0.0 0.0 0.0 0.0 0.0 0.0 0.0 0.0
 0.003717741531 0.0 0.0 0.0 0.0 0.0 0.0 0.0 0.0 0.0 0.0 0.0 0.0 0.0 0.0 0.0 0.0 0.0
 0.01135023402  0.0 0.0 0.0 0.0 0.0 0.0 0.0 0.0 0.0 0.0 0.0 0.0 0.0 0.0 0.0 0.0 0.0
 0.018011511504 0.0 0.0 0.0 0.0 0.0 0.0 0.0 0.0 0.0 0.0 0.0 0.0 0.0 0.0 0.0 0.0 0.0
 0.0000000      1.0 0.0 0.0 0.0 0.0 0.0 0.0 0.0 0.0 0.0 0.0 0.0 0.0 0.0 0.0 0.0 0.0
 0.0000000      0.0 1.0 0.0 0.0 0.0 0.0 0.0 0.0 0.0 0.0 0.0 0.0 0.0 0.0 0.0 0.0 0.0
 0.0000000      0.0 0.0 1.0 0.0 0.0 0.0 0.0 0.0 0.0 0.0 0.0 0.0 0.0 0.0 0.0 0.0 0.0
 0.0000000      0.0 0.0 0.0 1.0 0.0 0.0 0.0 0.0 0.0 0.0 0.0 0.0 0.0 0.0 0.0 0.0 0.0
 0.0000000      0.0 0.0 0.0 0.0 1.0 0.0 0.0 0.0 0.0 0.0 0.0 0.0 0.0 0.0 0.0 0.0 0.0
 0.0000000      0.0 0.0 0.0 0.0 0.0 1.0 0.0 0.0 0.0 0.0 0.0 0.0 0.0 0.0 0.0 0.0 0.0
 0.0000000      0.0 0.0 0.0 0.0 0.0 0.0 1.0 0.0 0.0 0.0 0.0 0.0 0.0 0.0 0.0 0.0 0.0
 0.0000000      0.0 0.0 0.0 0.0 0.0 0.0 0.0 1.0 0.0 0.0 0.0 0.0 0.0 0.0 0.0 0.0 0.0
 0.0000000      0.0 0.0 0.0 0.0 0.0 0.0 0.0 0.0 1.0 0.0 0.0 0.0 0.0 0.0 0.0 0.0 0.0
 0.0000000      0.0 0.0 0.0 0.0 0.0 0.0 0.0 0.0 0.0 1.0 0.0 0.0 0.0 0.0 0.0 0.0 0.0
 0.0000000      0.0 0.0 0.0 0.0 0.0 0.0 0.0 0.0 0.0 0.0 1.0 0.0 0.0 0.0 0.0 0.0 0.0
 0.0000000      0.0 0.0 0.0 0.0 0.0 0.0 0.0 0.0 0.0 0.0 0.0 1.0 0.0 0.0 0.0 0.0 0.0
 0.0000000      0.0 0.0 0.0 0.0 0.0 0.0 0.0 0.0 0.0 0.0 0.0 0.0 1.0 0.0 0.0 0.0 0.0
 0.0000000      0.0 0.0 0.0 0.0 0.0 0.0 0.0 0.0 0.0 0.0 0.0 0.0 0.0 1.0 0.0 0.0 0.0
 0.0000000      0.0 0.0 0.0 0.0 0.0 0.0 0.0 0.0 0.0 0.0 0.0 0.0 0.0 0.0 1.0 0.0 0.0
 0.0000000      0.0 0.0 0.0 0.0 0.0 0.0 0.0 0.0 0.0 0.0 0.0 0.0 0.0 0.0 0.0 1.0 0.0
 0.0000000      0.0 0.0 0.0 0.0 0.0 0.0 0.0 0.0 0.0 0.0 0.0 0.0 0.0 0.0 0.0 0.0 1.0
* P-type functions
    16    12
20638.8158100 8263.13058847 3308.29674293 1324.53762192 530.30306777
212.31661452 85.00487276 34.03326871 13.62584686 5.45535912
2.18415365 0.8744662 0.35010867 0.14017246 0.05612063
0.02246893
0.005047395441 0.0 0.0 0.0 0.0 0.0 0.0 0.0 0.0 0.0 0.0 0.0
0.005765748305 0.0 0.0 0.0 0.0 0.0 0.0 0.0 0.0 0.0 0.0 0.0
0.028632404025 0.0 0.0 0.0 0.0 0.0 0.0 0.0 0.0 0.0 0.0 0.0
0.084208329813 0.0 0.0 0.0 0.0 0.0 0.0 0.0 0.0 0.0 0.0 0.0
0.250442098401 0.0 0.0 0.0 0.0 0.0 0.0 0.0 0.0 0.0 0.0 0.0
0.0000000      1.0 0.0 0.0 0.0 0.0 0.0 0.0 0.0 0.0 0.0 0.0
0.0000000      0.0 1.0 0.0 0.0 0.0 0.0 0.0 0.0 0.0 0.0 0.0
0.0000000      0.0 0.0 1.0 0.0 0.0 0.0 0.0 0.0 0.0 0.0 0.0
0.0000000      0.0 0.0 0.0 1.0 0.0 0.0 0.0 0.0 0.0 0.0 0.0
0.0000000      0.0 0.0 0.0 0.0 1.0 0.0 0.0 0.0 0.0 0.0 0.0
0.0000000      0.0 0.0 0.0 0.0 0.0 1.0 0.0 0.0 0.0 0.0 0.0
0.0000000      0.0 0.0 0.0 0.0 0.0 0.0 1.0 0.0 0.0 0.0 0.0
0.0000000      0.0 0.0 0.0 0.0 0.0 0.0 0.0 1.0 0.0 0.0 0.0
0.0000000      0.0 0.0 0.0 0.0 0.0 0.0 0.0 0.0 1.0 0.0 0.0
0.0000000      0.0 0.0 0.0 0.0 0.0 0.0 0.0 0.0 0.0 1.0 0.0
0.0000000      0.0 0.0 0.0 0.0 0.0 0.0 0.0 0.0 0.0 0.0 1.0
* D-type functions
    12    9
627.5829636 258.55753059 106.5229627 43.88633182 18.08070365
7.44905831 3.06893309 1.26436791 0.52090618 0.21460783
0.08841615 0.03642652
0.021367927284 0.0 0.0 0.0 0.0 0.0 0.0 0.0 0.0
0.073160475039 0.0 0.0 0.0 0.0 0.0 0.0 0.0 0.0
0.273426715441 0.0 0.0 0.0 0.0 0.0 0.0 0.0 0.0
0.502963158858 0.0 0.0 0.0 0.0 0.0 0.0 0.0 0.0
0.0000000      1.0 0.0 0.0 0.0 0.0 0.0 0.0 0.0
0.0000000      0.0 1.0 0.0 0.0 0.0 0.0 0.0 0.0
0.0000000      0.0 0.0 1.0 0.0 0.0 0.0 0.0 0.0
0.0000000      0.0 0.0 0.0 1.0 0.0 0.0 0.0 0.0
0.0000000      0.0 0.0 0.0 0.0 1.0 0.0 0.0 0.0
0.0000000      0.0 0.0 0.0 0.0 0.0 1.0 0.0 0.0
0.0000000      0.0 0.0 0.0 0.0 0.0 0.0 1.0 0.0
0.0000000      0.0 0.0 0.0 0.0 0.0 0.0 0.0 1.0
* F-type functions
    7    4
99.91544536 39.27298393 15.43672514 6.06759301 2.38494141
0.9374303 0.36846841
0.021286713347 0.0 0.0 0.0
0.094716596003 0.0 0.0 0.0
0.289491602683 0.0 0.0 0.0
0.423718233952 0.0 0.0 0.0
0.0000000      1.0 0.0 0.0
0.0000000      0.0 1.0 0.0
0.0000000      0.0 0.0 1.0
* G-type functions
    3    3
23.3827000 7.3300000 2.29780564263
1.0 0.0 0.0
0.0 1.0 0.0
0.0 0.0 1.0
* H-type functions
    2    2
17.2135000 5.75144508671
1.0 0.0
0.0 1.0

