************************************************************************
* This file is part of OpenMolcas.                                     *
*                                                                      *
* OpenMolcas is free software; you can redistribute it and/or modify   *
* it under the terms of the GNU Lesser General Public License, v. 2.1. *
* OpenMolcas is distributed in the hope that it will be useful, but it *
* is provided "as is" and without any express or implied warranties.   *
* For more details see the full text of the license in the file        *
* LICENSE or in <http://www.gnu.org/licenses/>.                        *
************************************************************************

#Hamiltonian DKH
#Nucleus UNK
#Contraction CCC
#AllElectron AE_

************************************************************************
* This file has been generated from Basis Set Exchange data:           *
*   https://www.basissetexchange.org                                   *
* Version: 0  (Data from the original Basis Set Exchange)              *
************************************************************************

/La.SARC2-QZVP-DKH2.Aravena.23s16p12d7f3g2h.18s12p9d4f3g2h.
D. Aravena, F. Neese, D.A. Pantazis. J. Chem. Theory Comput. 12 (2016) 1148-1156. doi:10.1021/acs.jctc.5b01048
LANTHANUM (23s,16p,12d,7f,3g,2h) -> [18s,12p,9d,4f,3g,2h]
    57.0   5
* s-type functions
   23   18
    3908799.08700000
    1637257.07965000
     685788.82802600
     287252.57779700
     120319.90035300
      50397.73196070
      21109.81956720
       8842.15350221
       3703.66398953
       1551.33327463
        649.79839850
        272.17746541
        114.00547131
         47.75284195
         20.00196910
          8.37811430
          3.50929445
          1.46991878
          0.61569676
          0.25789350
          0.10802243
          0.04524676
          0.01895226
  0.001979610978  0.000000000000  0.000000000000  0.000000000000  0.000000000000  0.000000000000  0.000000000000  0.000000000000  0.000000000000  0.000000000000  0.000000000000
  0.000000000000  0.000000000000  0.000000000000  0.000000000000  0.000000000000  0.000000000000  0.000000000000
 -0.000472725875  0.000000000000  0.000000000000  0.000000000000  0.000000000000  0.000000000000  0.000000000000  0.000000000000  0.000000000000  0.000000000000  0.000000000000
  0.000000000000  0.000000000000  0.000000000000  0.000000000000  0.000000000000  0.000000000000  0.000000000000
  0.003963226909  0.000000000000  0.000000000000  0.000000000000  0.000000000000  0.000000000000  0.000000000000  0.000000000000  0.000000000000  0.000000000000  0.000000000000
  0.000000000000  0.000000000000  0.000000000000  0.000000000000  0.000000000000  0.000000000000  0.000000000000
  0.003081372993  0.000000000000  0.000000000000  0.000000000000  0.000000000000  0.000000000000  0.000000000000  0.000000000000  0.000000000000  0.000000000000  0.000000000000
  0.000000000000  0.000000000000  0.000000000000  0.000000000000  0.000000000000  0.000000000000  0.000000000000
  0.009801201399  0.000000000000  0.000000000000  0.000000000000  0.000000000000  0.000000000000  0.000000000000  0.000000000000  0.000000000000  0.000000000000  0.000000000000
  0.000000000000  0.000000000000  0.000000000000  0.000000000000  0.000000000000  0.000000000000  0.000000000000
  0.016393348515  0.000000000000  0.000000000000  0.000000000000  0.000000000000  0.000000000000  0.000000000000  0.000000000000  0.000000000000  0.000000000000  0.000000000000
  0.000000000000  0.000000000000  0.000000000000  0.000000000000  0.000000000000  0.000000000000  0.000000000000
  0.000000000000  1.000000000000  0.000000000000  0.000000000000  0.000000000000  0.000000000000  0.000000000000  0.000000000000  0.000000000000  0.000000000000  0.000000000000
  0.000000000000  0.000000000000  0.000000000000  0.000000000000  0.000000000000  0.000000000000  0.000000000000
  0.000000000000  0.000000000000  1.000000000000  0.000000000000  0.000000000000  0.000000000000  0.000000000000  0.000000000000  0.000000000000  0.000000000000  0.000000000000
  0.000000000000  0.000000000000  0.000000000000  0.000000000000  0.000000000000  0.000000000000  0.000000000000
  0.000000000000  0.000000000000  0.000000000000  1.000000000000  0.000000000000  0.000000000000  0.000000000000  0.000000000000  0.000000000000  0.000000000000  0.000000000000
  0.000000000000  0.000000000000  0.000000000000  0.000000000000  0.000000000000  0.000000000000  0.000000000000
  0.000000000000  0.000000000000  0.000000000000  0.000000000000  1.000000000000  0.000000000000  0.000000000000  0.000000000000  0.000000000000  0.000000000000  0.000000000000
  0.000000000000  0.000000000000  0.000000000000  0.000000000000  0.000000000000  0.000000000000  0.000000000000
  0.000000000000  0.000000000000  0.000000000000  0.000000000000  0.000000000000  1.000000000000  0.000000000000  0.000000000000  0.000000000000  0.000000000000  0.000000000000
  0.000000000000  0.000000000000  0.000000000000  0.000000000000  0.000000000000  0.000000000000  0.000000000000
  0.000000000000  0.000000000000  0.000000000000  0.000000000000  0.000000000000  0.000000000000  1.000000000000  0.000000000000  0.000000000000  0.000000000000  0.000000000000
  0.000000000000  0.000000000000  0.000000000000  0.000000000000  0.000000000000  0.000000000000  0.000000000000
  0.000000000000  0.000000000000  0.000000000000  0.000000000000  0.000000000000  0.000000000000  0.000000000000  1.000000000000  0.000000000000  0.000000000000  0.000000000000
  0.000000000000  0.000000000000  0.000000000000  0.000000000000  0.000000000000  0.000000000000  0.000000000000
  0.000000000000  0.000000000000  0.000000000000  0.000000000000  0.000000000000  0.000000000000  0.000000000000  0.000000000000  1.000000000000  0.000000000000  0.000000000000
  0.000000000000  0.000000000000  0.000000000000  0.000000000000  0.000000000000  0.000000000000  0.000000000000
  0.000000000000  0.000000000000  0.000000000000  0.000000000000  0.000000000000  0.000000000000  0.000000000000  0.000000000000  0.000000000000  1.000000000000  0.000000000000
  0.000000000000  0.000000000000  0.000000000000  0.000000000000  0.000000000000  0.000000000000  0.000000000000
  0.000000000000  0.000000000000  0.000000000000  0.000000000000  0.000000000000  0.000000000000  0.000000000000  0.000000000000  0.000000000000  0.000000000000  1.000000000000
  0.000000000000  0.000000000000  0.000000000000  0.000000000000  0.000000000000  0.000000000000  0.000000000000
  0.000000000000  0.000000000000  0.000000000000  0.000000000000  0.000000000000  0.000000000000  0.000000000000  0.000000000000  0.000000000000  0.000000000000  0.000000000000
  1.000000000000  0.000000000000  0.000000000000  0.000000000000  0.000000000000  0.000000000000  0.000000000000
  0.000000000000  0.000000000000  0.000000000000  0.000000000000  0.000000000000  0.000000000000  0.000000000000  0.000000000000  0.000000000000  0.000000000000  0.000000000000
  0.000000000000  1.000000000000  0.000000000000  0.000000000000  0.000000000000  0.000000000000  0.000000000000
  0.000000000000  0.000000000000  0.000000000000  0.000000000000  0.000000000000  0.000000000000  0.000000000000  0.000000000000  0.000000000000  0.000000000000  0.000000000000
  0.000000000000  0.000000000000  1.000000000000  0.000000000000  0.000000000000  0.000000000000  0.000000000000
  0.000000000000  0.000000000000  0.000000000000  0.000000000000  0.000000000000  0.000000000000  0.000000000000  0.000000000000  0.000000000000  0.000000000000  0.000000000000
  0.000000000000  0.000000000000  0.000000000000  1.000000000000  0.000000000000  0.000000000000  0.000000000000
  0.000000000000  0.000000000000  0.000000000000  0.000000000000  0.000000000000  0.000000000000  0.000000000000  0.000000000000  0.000000000000  0.000000000000  0.000000000000
  0.000000000000  0.000000000000  0.000000000000  0.000000000000  1.000000000000  0.000000000000  0.000000000000
  0.000000000000  0.000000000000  0.000000000000  0.000000000000  0.000000000000  0.000000000000  0.000000000000  0.000000000000  0.000000000000  0.000000000000  0.000000000000
  0.000000000000  0.000000000000  0.000000000000  0.000000000000  0.000000000000  1.000000000000  0.000000000000
  0.000000000000  0.000000000000  0.000000000000  0.000000000000  0.000000000000  0.000000000000  0.000000000000  0.000000000000  0.000000000000  0.000000000000  0.000000000000
  0.000000000000  0.000000000000  0.000000000000  0.000000000000  0.000000000000  0.000000000000  1.000000000000
* p-type functions
   16   12
       9595.61858100
       3996.72610234
       1664.69930024
        693.37344848
        288.80094981
        120.29013917
         50.10273543
         20.86857755
          8.69209086
          3.62039259
          1.50795047
          0.62808510
          0.26160732
          0.10896357
          0.04538504
          0.01890358
  0.004975014088  0.000000000000  0.000000000000  0.000000000000  0.000000000000  0.000000000000  0.000000000000  0.000000000000  0.000000000000  0.000000000000  0.000000000000
  0.000000000000
  0.006019932782  0.000000000000  0.000000000000  0.000000000000  0.000000000000  0.000000000000  0.000000000000  0.000000000000  0.000000000000  0.000000000000  0.000000000000
  0.000000000000
  0.031279973383  0.000000000000  0.000000000000  0.000000000000  0.000000000000  0.000000000000  0.000000000000  0.000000000000  0.000000000000  0.000000000000  0.000000000000
  0.000000000000
  0.092541550536  0.000000000000  0.000000000000  0.000000000000  0.000000000000  0.000000000000  0.000000000000  0.000000000000  0.000000000000  0.000000000000  0.000000000000
  0.000000000000
  0.263757150226  0.000000000000  0.000000000000  0.000000000000  0.000000000000  0.000000000000  0.000000000000  0.000000000000  0.000000000000  0.000000000000  0.000000000000
  0.000000000000
  0.000000000000  1.000000000000  0.000000000000  0.000000000000  0.000000000000  0.000000000000  0.000000000000  0.000000000000  0.000000000000  0.000000000000  0.000000000000
  0.000000000000
  0.000000000000  0.000000000000  1.000000000000  0.000000000000  0.000000000000  0.000000000000  0.000000000000  0.000000000000  0.000000000000  0.000000000000  0.000000000000
  0.000000000000
  0.000000000000  0.000000000000  0.000000000000  1.000000000000  0.000000000000  0.000000000000  0.000000000000  0.000000000000  0.000000000000  0.000000000000  0.000000000000
  0.000000000000
  0.000000000000  0.000000000000  0.000000000000  0.000000000000  1.000000000000  0.000000000000  0.000000000000  0.000000000000  0.000000000000  0.000000000000  0.000000000000
  0.000000000000
  0.000000000000  0.000000000000  0.000000000000  0.000000000000  0.000000000000  1.000000000000  0.000000000000  0.000000000000  0.000000000000  0.000000000000  0.000000000000
  0.000000000000
  0.000000000000  0.000000000000  0.000000000000  0.000000000000  0.000000000000  0.000000000000  1.000000000000  0.000000000000  0.000000000000  0.000000000000  0.000000000000
  0.000000000000
  0.000000000000  0.000000000000  0.000000000000  0.000000000000  0.000000000000  0.000000000000  0.000000000000  1.000000000000  0.000000000000  0.000000000000  0.000000000000
  0.000000000000
  0.000000000000  0.000000000000  0.000000000000  0.000000000000  0.000000000000  0.000000000000  0.000000000000  0.000000000000  1.000000000000  0.000000000000  0.000000000000
  0.000000000000
  0.000000000000  0.000000000000  0.000000000000  0.000000000000  0.000000000000  0.000000000000  0.000000000000  0.000000000000  0.000000000000  1.000000000000  0.000000000000
  0.000000000000
  0.000000000000  0.000000000000  0.000000000000  0.000000000000  0.000000000000  0.000000000000  0.000000000000  0.000000000000  0.000000000000  0.000000000000  1.000000000000
  0.000000000000
  0.000000000000  0.000000000000  0.000000000000  0.000000000000  0.000000000000  0.000000000000  0.000000000000  0.000000000000  0.000000000000  0.000000000000  0.000000000000
  1.000000000000
* d-type functions
   12    9
        435.68692980
        187.13238352
         80.37544064
         34.52214596
         14.82764576
          6.36863882
          2.73540123
          1.17488526
          0.50462629
          0.21674261
          0.09309336
          0.03998463
  0.014587380970  0.000000000000  0.000000000000  0.000000000000  0.000000000000  0.000000000000  0.000000000000  0.000000000000  0.000000000000
  0.047037371194  0.000000000000  0.000000000000  0.000000000000  0.000000000000  0.000000000000  0.000000000000  0.000000000000  0.000000000000
  0.183584198458  0.000000000000  0.000000000000  0.000000000000  0.000000000000  0.000000000000  0.000000000000  0.000000000000  0.000000000000
  0.405997418825  0.000000000000  0.000000000000  0.000000000000  0.000000000000  0.000000000000  0.000000000000  0.000000000000  0.000000000000
  0.000000000000  1.000000000000  0.000000000000  0.000000000000  0.000000000000  0.000000000000  0.000000000000  0.000000000000  0.000000000000
  0.000000000000  0.000000000000  1.000000000000  0.000000000000  0.000000000000  0.000000000000  0.000000000000  0.000000000000  0.000000000000
  0.000000000000  0.000000000000  0.000000000000  1.000000000000  0.000000000000  0.000000000000  0.000000000000  0.000000000000  0.000000000000
  0.000000000000  0.000000000000  0.000000000000  0.000000000000  1.000000000000  0.000000000000  0.000000000000  0.000000000000  0.000000000000
  0.000000000000  0.000000000000  0.000000000000  0.000000000000  0.000000000000  1.000000000000  0.000000000000  0.000000000000  0.000000000000
  0.000000000000  0.000000000000  0.000000000000  0.000000000000  0.000000000000  0.000000000000  1.000000000000  0.000000000000  0.000000000000
  0.000000000000  0.000000000000  0.000000000000  0.000000000000  0.000000000000  0.000000000000  0.000000000000  1.000000000000  0.000000000000
  0.000000000000  0.000000000000  0.000000000000  0.000000000000  0.000000000000  0.000000000000  0.000000000000  0.000000000000  1.000000000000
* f-type functions
    7    4
         36.29648298
         13.29594754
          4.87050553
          1.78413942
          0.65355710
          0.23940779
          0.08769868
  0.027699162050  0.000000000000  0.000000000000  0.000000000000
  0.112111158086  0.000000000000  0.000000000000  0.000000000000
  0.289437552718  0.000000000000  0.000000000000  0.000000000000
  0.389855811339  0.000000000000  0.000000000000  0.000000000000
  0.000000000000  1.000000000000  0.000000000000  0.000000000000
  0.000000000000  0.000000000000  1.000000000000  0.000000000000
  0.000000000000  0.000000000000  0.000000000000  1.000000000000
* g-type functions
    3    3
         19.16000000
          4.00000000
    8350730.68894e-7
  1.000000000000  0.000000000000  0.000000000000
  0.000000000000  1.000000000000  0.000000000000
  0.000000000000  0.000000000000  1.000000000000
* h-type functions
    2    2
          8.37000000
          3.72000000
  1.000000000000  0.000000000000
  0.000000000000  1.000000000000

/Ce.SARC2-QZVP-DKH2.Aravena.23s16p12d7f3g2h.18s12p9d4f3g2h.
D. Aravena, F. Neese, D.A. Pantazis. J. Chem. Theory Comput. 12 (2016) 1148-1156. doi:10.1021/acs.jctc.5b01048
CERIUM (23s,16p,12d,7f,3g,2h) -> [18s,12p,9d,4f,3g,2h]
    58.0   5
* s-type functions
   23   18
    4164893.93300000
    1746533.69727000
     732402.79459100
     307130.54913500
     128794.12108800
      54009.36401000
      22648.63781150
       9497.62701558
       3982.79665549
       1670.17184113
        700.38071742
        293.70220312
        123.16299118
         51.64796939
         21.65839524
          9.08237226
          3.80866103
          1.59714867
          0.66975871
          0.28086097
          0.11777807
          0.04938982
          0.02071145
  0.002015077737  0.000000000000  0.000000000000  0.000000000000  0.000000000000  0.000000000000  0.000000000000  0.000000000000  0.000000000000  0.000000000000  0.000000000000
  0.000000000000  0.000000000000  0.000000000000  0.000000000000  0.000000000000  0.000000000000  0.000000000000
 -0.000495600013  0.000000000000  0.000000000000  0.000000000000  0.000000000000  0.000000000000  0.000000000000  0.000000000000  0.000000000000  0.000000000000  0.000000000000
  0.000000000000  0.000000000000  0.000000000000  0.000000000000  0.000000000000  0.000000000000  0.000000000000
  0.004020003798  0.000000000000  0.000000000000  0.000000000000  0.000000000000  0.000000000000  0.000000000000  0.000000000000  0.000000000000  0.000000000000  0.000000000000
  0.000000000000  0.000000000000  0.000000000000  0.000000000000  0.000000000000  0.000000000000  0.000000000000
  0.003065053839  0.000000000000  0.000000000000  0.000000000000  0.000000000000  0.000000000000  0.000000000000  0.000000000000  0.000000000000  0.000000000000  0.000000000000
  0.000000000000  0.000000000000  0.000000000000  0.000000000000  0.000000000000  0.000000000000  0.000000000000
  0.009825228787  0.000000000000  0.000000000000  0.000000000000  0.000000000000  0.000000000000  0.000000000000  0.000000000000  0.000000000000  0.000000000000  0.000000000000
  0.000000000000  0.000000000000  0.000000000000  0.000000000000  0.000000000000  0.000000000000  0.000000000000
  0.016250559512  0.000000000000  0.000000000000  0.000000000000  0.000000000000  0.000000000000  0.000000000000  0.000000000000  0.000000000000  0.000000000000  0.000000000000
  0.000000000000  0.000000000000  0.000000000000  0.000000000000  0.000000000000  0.000000000000  0.000000000000
  0.000000000000  1.000000000000  0.000000000000  0.000000000000  0.000000000000  0.000000000000  0.000000000000  0.000000000000  0.000000000000  0.000000000000  0.000000000000
  0.000000000000  0.000000000000  0.000000000000  0.000000000000  0.000000000000  0.000000000000  0.000000000000
  0.000000000000  0.000000000000  1.000000000000  0.000000000000  0.000000000000  0.000000000000  0.000000000000  0.000000000000  0.000000000000  0.000000000000  0.000000000000
  0.000000000000  0.000000000000  0.000000000000  0.000000000000  0.000000000000  0.000000000000  0.000000000000
  0.000000000000  0.000000000000  0.000000000000  1.000000000000  0.000000000000  0.000000000000  0.000000000000  0.000000000000  0.000000000000  0.000000000000  0.000000000000
  0.000000000000  0.000000000000  0.000000000000  0.000000000000  0.000000000000  0.000000000000  0.000000000000
  0.000000000000  0.000000000000  0.000000000000  0.000000000000  1.000000000000  0.000000000000  0.000000000000  0.000000000000  0.000000000000  0.000000000000  0.000000000000
  0.000000000000  0.000000000000  0.000000000000  0.000000000000  0.000000000000  0.000000000000  0.000000000000
  0.000000000000  0.000000000000  0.000000000000  0.000000000000  0.000000000000  1.000000000000  0.000000000000  0.000000000000  0.000000000000  0.000000000000  0.000000000000
  0.000000000000  0.000000000000  0.000000000000  0.000000000000  0.000000000000  0.000000000000  0.000000000000
  0.000000000000  0.000000000000  0.000000000000  0.000000000000  0.000000000000  0.000000000000  1.000000000000  0.000000000000  0.000000000000  0.000000000000  0.000000000000
  0.000000000000  0.000000000000  0.000000000000  0.000000000000  0.000000000000  0.000000000000  0.000000000000
  0.000000000000  0.000000000000  0.000000000000  0.000000000000  0.000000000000  0.000000000000  0.000000000000  1.000000000000  0.000000000000  0.000000000000  0.000000000000
  0.000000000000  0.000000000000  0.000000000000  0.000000000000  0.000000000000  0.000000000000  0.000000000000
  0.000000000000  0.000000000000  0.000000000000  0.000000000000  0.000000000000  0.000000000000  0.000000000000  0.000000000000  1.000000000000  0.000000000000  0.000000000000
  0.000000000000  0.000000000000  0.000000000000  0.000000000000  0.000000000000  0.000000000000  0.000000000000
  0.000000000000  0.000000000000  0.000000000000  0.000000000000  0.000000000000  0.000000000000  0.000000000000  0.000000000000  0.000000000000  1.000000000000  0.000000000000
  0.000000000000  0.000000000000  0.000000000000  0.000000000000  0.000000000000  0.000000000000  0.000000000000
  0.000000000000  0.000000000000  0.000000000000  0.000000000000  0.000000000000  0.000000000000  0.000000000000  0.000000000000  0.000000000000  0.000000000000  1.000000000000
  0.000000000000  0.000000000000  0.000000000000  0.000000000000  0.000000000000  0.000000000000  0.000000000000
  0.000000000000  0.000000000000  0.000000000000  0.000000000000  0.000000000000  0.000000000000  0.000000000000  0.000000000000  0.000000000000  0.000000000000  0.000000000000
  1.000000000000  0.000000000000  0.000000000000  0.000000000000  0.000000000000  0.000000000000  0.000000000000
  0.000000000000  0.000000000000  0.000000000000  0.000000000000  0.000000000000  0.000000000000  0.000000000000  0.000000000000  0.000000000000  0.000000000000  0.000000000000
  0.000000000000  1.000000000000  0.000000000000  0.000000000000  0.000000000000  0.000000000000  0.000000000000
  0.000000000000  0.000000000000  0.000000000000  0.000000000000  0.000000000000  0.000000000000  0.000000000000  0.000000000000  0.000000000000  0.000000000000  0.000000000000
  0.000000000000  0.000000000000  1.000000000000  0.000000000000  0.000000000000  0.000000000000  0.000000000000
  0.000000000000  0.000000000000  0.000000000000  0.000000000000  0.000000000000  0.000000000000  0.000000000000  0.000000000000  0.000000000000  0.000000000000  0.000000000000
  0.000000000000  0.000000000000  0.000000000000  1.000000000000  0.000000000000  0.000000000000  0.000000000000
  0.000000000000  0.000000000000  0.000000000000  0.000000000000  0.000000000000  0.000000000000  0.000000000000  0.000000000000  0.000000000000  0.000000000000  0.000000000000
  0.000000000000  0.000000000000  0.000000000000  0.000000000000  1.000000000000  0.000000000000  0.000000000000
  0.000000000000  0.000000000000  0.000000000000  0.000000000000  0.000000000000  0.000000000000  0.000000000000  0.000000000000  0.000000000000  0.000000000000  0.000000000000
  0.000000000000  0.000000000000  0.000000000000  0.000000000000  0.000000000000  1.000000000000  0.000000000000
  0.000000000000  0.000000000000  0.000000000000  0.000000000000  0.000000000000  0.000000000000  0.000000000000  0.000000000000  0.000000000000  0.000000000000  0.000000000000
  0.000000000000  0.000000000000  0.000000000000  0.000000000000  0.000000000000  0.000000000000  1.000000000000
* p-type functions
   16   12
      10250.85729000
       4253.73723052
       1765.14801781
        732.47296576
        303.94994649
        126.12830001
         52.33870986
         21.71868288
          9.01247255
          3.73985209
          1.55190416
          0.64398443
          0.26723039
          0.11089100
          0.04601578
          0.01909489
  0.004923026968  0.000000000000  0.000000000000  0.000000000000  0.000000000000  0.000000000000  0.000000000000  0.000000000000  0.000000000000  0.000000000000  0.000000000000
  0.000000000000
  0.005945698271  0.000000000000  0.000000000000  0.000000000000  0.000000000000  0.000000000000  0.000000000000  0.000000000000  0.000000000000  0.000000000000  0.000000000000
  0.000000000000
  0.030787824299  0.000000000000  0.000000000000  0.000000000000  0.000000000000  0.000000000000  0.000000000000  0.000000000000  0.000000000000  0.000000000000  0.000000000000
  0.000000000000
  0.091354664860  0.000000000000  0.000000000000  0.000000000000  0.000000000000  0.000000000000  0.000000000000  0.000000000000  0.000000000000  0.000000000000  0.000000000000
  0.000000000000
  0.261977711930  0.000000000000  0.000000000000  0.000000000000  0.000000000000  0.000000000000  0.000000000000  0.000000000000  0.000000000000  0.000000000000  0.000000000000
  0.000000000000
  0.000000000000  1.000000000000  0.000000000000  0.000000000000  0.000000000000  0.000000000000  0.000000000000  0.000000000000  0.000000000000  0.000000000000  0.000000000000
  0.000000000000
  0.000000000000  0.000000000000  1.000000000000  0.000000000000  0.000000000000  0.000000000000  0.000000000000  0.000000000000  0.000000000000  0.000000000000  0.000000000000
  0.000000000000
  0.000000000000  0.000000000000  0.000000000000  1.000000000000  0.000000000000  0.000000000000  0.000000000000  0.000000000000  0.000000000000  0.000000000000  0.000000000000
  0.000000000000
  0.000000000000  0.000000000000  0.000000000000  0.000000000000  1.000000000000  0.000000000000  0.000000000000  0.000000000000  0.000000000000  0.000000000000  0.000000000000
  0.000000000000
  0.000000000000  0.000000000000  0.000000000000  0.000000000000  0.000000000000  1.000000000000  0.000000000000  0.000000000000  0.000000000000  0.000000000000  0.000000000000
  0.000000000000
  0.000000000000  0.000000000000  0.000000000000  0.000000000000  0.000000000000  0.000000000000  1.000000000000  0.000000000000  0.000000000000  0.000000000000  0.000000000000
  0.000000000000
  0.000000000000  0.000000000000  0.000000000000  0.000000000000  0.000000000000  0.000000000000  0.000000000000  1.000000000000  0.000000000000  0.000000000000  0.000000000000
  0.000000000000
  0.000000000000  0.000000000000  0.000000000000  0.000000000000  0.000000000000  0.000000000000  0.000000000000  0.000000000000  1.000000000000  0.000000000000  0.000000000000
  0.000000000000
  0.000000000000  0.000000000000  0.000000000000  0.000000000000  0.000000000000  0.000000000000  0.000000000000  0.000000000000  0.000000000000  1.000000000000  0.000000000000
  0.000000000000
  0.000000000000  0.000000000000  0.000000000000  0.000000000000  0.000000000000  0.000000000000  0.000000000000  0.000000000000  0.000000000000  0.000000000000  1.000000000000
  0.000000000000
  0.000000000000  0.000000000000  0.000000000000  0.000000000000  0.000000000000  0.000000000000  0.000000000000  0.000000000000  0.000000000000  0.000000000000  0.000000000000
  1.000000000000
* d-type functions
   12    9
        471.32476470
        201.30479396
         85.97812614
         36.72162013
         15.68395876
          6.69868491
          2.86103656
          1.22196078
          0.52190460
          0.22290765
          0.09520480
          0.04066237
  0.013697527513  0.000000000000  0.000000000000  0.000000000000  0.000000000000  0.000000000000  0.000000000000  0.000000000000  0.000000000000
  0.045298348891  0.000000000000  0.000000000000  0.000000000000  0.000000000000  0.000000000000  0.000000000000  0.000000000000  0.000000000000
  0.179574563169  0.000000000000  0.000000000000  0.000000000000  0.000000000000  0.000000000000  0.000000000000  0.000000000000  0.000000000000
  0.406466067425  0.000000000000  0.000000000000  0.000000000000  0.000000000000  0.000000000000  0.000000000000  0.000000000000  0.000000000000
  0.000000000000  1.000000000000  0.000000000000  0.000000000000  0.000000000000  0.000000000000  0.000000000000  0.000000000000  0.000000000000
  0.000000000000  0.000000000000  1.000000000000  0.000000000000  0.000000000000  0.000000000000  0.000000000000  0.000000000000  0.000000000000
  0.000000000000  0.000000000000  0.000000000000  1.000000000000  0.000000000000  0.000000000000  0.000000000000  0.000000000000  0.000000000000
  0.000000000000  0.000000000000  0.000000000000  0.000000000000  1.000000000000  0.000000000000  0.000000000000  0.000000000000  0.000000000000
  0.000000000000  0.000000000000  0.000000000000  0.000000000000  0.000000000000  1.000000000000  0.000000000000  0.000000000000  0.000000000000
  0.000000000000  0.000000000000  0.000000000000  0.000000000000  0.000000000000  0.000000000000  1.000000000000  0.000000000000  0.000000000000
  0.000000000000  0.000000000000  0.000000000000  0.000000000000  0.000000000000  0.000000000000  0.000000000000  1.000000000000  0.000000000000
  0.000000000000  0.000000000000  0.000000000000  0.000000000000  0.000000000000  0.000000000000  0.000000000000  0.000000000000  1.000000000000
* f-type functions
    7    4
         56.04029889
         22.49111076
          9.02654114
          3.62269546
          1.45392595
          0.58351597
          0.23418723
  0.017335857499  0.000000000000  0.000000000000  0.000000000000
  0.068655024334  0.000000000000  0.000000000000  0.000000000000
  0.223441915305  0.000000000000  0.000000000000  0.000000000000
  0.389036267605  0.000000000000  0.000000000000  0.000000000000
  0.000000000000  1.000000000000  0.000000000000  0.000000000000
  0.000000000000  0.000000000000  1.000000000000  0.000000000000
  0.000000000000  0.000000000000  0.000000000000  1.000000000000
* g-type functions
    3    3
         22.75250000
          4.75000000
    9916492.69311e-7
  1.000000000000  0.000000000000  0.000000000000
  0.000000000000  1.000000000000  0.000000000000
  0.000000000000  0.000000000000  1.000000000000
* h-type functions
    2    2
          9.46420000
    3791139.24051e-6
  1.000000000000  0.000000000000
  0.000000000000  1.000000000000

/Pr.SARC2-QZVP-DKH2.Aravena.23s16p12d7f3g2h.18s12p9d4f3g2h.
D. Aravena, F. Neese, D.A. Pantazis. J. Chem. Theory Comput. 12 (2016) 1148-1156. doi:10.1021/acs.jctc.5b01048
PRASEODYMIUM (23s,16p,12d,7f,3g,2h) -> [18s,12p,9d,4f,3g,2h]
    59.0   5
* s-type functions
   23   18
    4449443.76200000
    1857835.01641000
     775726.39026800
     323899.28451300
     135241.94590300
      56469.35577240
      23578.39588940
       9844.99902847
       4110.71246429
       1716.40006415
        716.67118676
        299.24118547
        124.94612416
         52.17040535
         21.78339834
          9.09551000
          3.79776841
          1.58573240
          0.66211179
          0.27646028
          0.11543411
          0.04819873
          0.02012505
  0.002034356477  0.000000000000  0.000000000000  0.000000000000  0.000000000000  0.000000000000  0.000000000000  0.000000000000  0.000000000000  0.000000000000  0.000000000000
  0.000000000000  0.000000000000  0.000000000000  0.000000000000  0.000000000000  0.000000000000  0.000000000000
 -0.000469690270  0.000000000000  0.000000000000  0.000000000000  0.000000000000  0.000000000000  0.000000000000  0.000000000000  0.000000000000  0.000000000000  0.000000000000
  0.000000000000  0.000000000000  0.000000000000  0.000000000000  0.000000000000  0.000000000000  0.000000000000
  0.004060292506  0.000000000000  0.000000000000  0.000000000000  0.000000000000  0.000000000000  0.000000000000  0.000000000000  0.000000000000  0.000000000000  0.000000000000
  0.000000000000  0.000000000000  0.000000000000  0.000000000000  0.000000000000  0.000000000000  0.000000000000
  0.003166247639  0.000000000000  0.000000000000  0.000000000000  0.000000000000  0.000000000000  0.000000000000  0.000000000000  0.000000000000  0.000000000000  0.000000000000
  0.000000000000  0.000000000000  0.000000000000  0.000000000000  0.000000000000  0.000000000000  0.000000000000
  0.009992012851  0.000000000000  0.000000000000  0.000000000000  0.000000000000  0.000000000000  0.000000000000  0.000000000000  0.000000000000  0.000000000000  0.000000000000
  0.000000000000  0.000000000000  0.000000000000  0.000000000000  0.000000000000  0.000000000000  0.000000000000
  0.016594342584  0.000000000000  0.000000000000  0.000000000000  0.000000000000  0.000000000000  0.000000000000  0.000000000000  0.000000000000  0.000000000000  0.000000000000
  0.000000000000  0.000000000000  0.000000000000  0.000000000000  0.000000000000  0.000000000000  0.000000000000
  0.000000000000  1.000000000000  0.000000000000  0.000000000000  0.000000000000  0.000000000000  0.000000000000  0.000000000000  0.000000000000  0.000000000000  0.000000000000
  0.000000000000  0.000000000000  0.000000000000  0.000000000000  0.000000000000  0.000000000000  0.000000000000
  0.000000000000  0.000000000000  1.000000000000  0.000000000000  0.000000000000  0.000000000000  0.000000000000  0.000000000000  0.000000000000  0.000000000000  0.000000000000
  0.000000000000  0.000000000000  0.000000000000  0.000000000000  0.000000000000  0.000000000000  0.000000000000
  0.000000000000  0.000000000000  0.000000000000  1.000000000000  0.000000000000  0.000000000000  0.000000000000  0.000000000000  0.000000000000  0.000000000000  0.000000000000
  0.000000000000  0.000000000000  0.000000000000  0.000000000000  0.000000000000  0.000000000000  0.000000000000
  0.000000000000  0.000000000000  0.000000000000  0.000000000000  1.000000000000  0.000000000000  0.000000000000  0.000000000000  0.000000000000  0.000000000000  0.000000000000
  0.000000000000  0.000000000000  0.000000000000  0.000000000000  0.000000000000  0.000000000000  0.000000000000
  0.000000000000  0.000000000000  0.000000000000  0.000000000000  0.000000000000  1.000000000000  0.000000000000  0.000000000000  0.000000000000  0.000000000000  0.000000000000
  0.000000000000  0.000000000000  0.000000000000  0.000000000000  0.000000000000  0.000000000000  0.000000000000
  0.000000000000  0.000000000000  0.000000000000  0.000000000000  0.000000000000  0.000000000000  1.000000000000  0.000000000000  0.000000000000  0.000000000000  0.000000000000
  0.000000000000  0.000000000000  0.000000000000  0.000000000000  0.000000000000  0.000000000000  0.000000000000
  0.000000000000  0.000000000000  0.000000000000  0.000000000000  0.000000000000  0.000000000000  0.000000000000  1.000000000000  0.000000000000  0.000000000000  0.000000000000
  0.000000000000  0.000000000000  0.000000000000  0.000000000000  0.000000000000  0.000000000000  0.000000000000
  0.000000000000  0.000000000000  0.000000000000  0.000000000000  0.000000000000  0.000000000000  0.000000000000  0.000000000000  1.000000000000  0.000000000000  0.000000000000
  0.000000000000  0.000000000000  0.000000000000  0.000000000000  0.000000000000  0.000000000000  0.000000000000
  0.000000000000  0.000000000000  0.000000000000  0.000000000000  0.000000000000  0.000000000000  0.000000000000  0.000000000000  0.000000000000  1.000000000000  0.000000000000
  0.000000000000  0.000000000000  0.000000000000  0.000000000000  0.000000000000  0.000000000000  0.000000000000
  0.000000000000  0.000000000000  0.000000000000  0.000000000000  0.000000000000  0.000000000000  0.000000000000  0.000000000000  0.000000000000  0.000000000000  1.000000000000
  0.000000000000  0.000000000000  0.000000000000  0.000000000000  0.000000000000  0.000000000000  0.000000000000
  0.000000000000  0.000000000000  0.000000000000  0.000000000000  0.000000000000  0.000000000000  0.000000000000  0.000000000000  0.000000000000  0.000000000000  0.000000000000
  1.000000000000  0.000000000000  0.000000000000  0.000000000000  0.000000000000  0.000000000000  0.000000000000
  0.000000000000  0.000000000000  0.000000000000  0.000000000000  0.000000000000  0.000000000000  0.000000000000  0.000000000000  0.000000000000  0.000000000000  0.000000000000
  0.000000000000  1.000000000000  0.000000000000  0.000000000000  0.000000000000  0.000000000000  0.000000000000
  0.000000000000  0.000000000000  0.000000000000  0.000000000000  0.000000000000  0.000000000000  0.000000000000  0.000000000000  0.000000000000  0.000000000000  0.000000000000
  0.000000000000  0.000000000000  1.000000000000  0.000000000000  0.000000000000  0.000000000000  0.000000000000
  0.000000000000  0.000000000000  0.000000000000  0.000000000000  0.000000000000  0.000000000000  0.000000000000  0.000000000000  0.000000000000  0.000000000000  0.000000000000
  0.000000000000  0.000000000000  0.000000000000  1.000000000000  0.000000000000  0.000000000000  0.000000000000
  0.000000000000  0.000000000000  0.000000000000  0.000000000000  0.000000000000  0.000000000000  0.000000000000  0.000000000000  0.000000000000  0.000000000000  0.000000000000
  0.000000000000  0.000000000000  0.000000000000  0.000000000000  1.000000000000  0.000000000000  0.000000000000
  0.000000000000  0.000000000000  0.000000000000  0.000000000000  0.000000000000  0.000000000000  0.000000000000  0.000000000000  0.000000000000  0.000000000000  0.000000000000
  0.000000000000  0.000000000000  0.000000000000  0.000000000000  0.000000000000  1.000000000000  0.000000000000
  0.000000000000  0.000000000000  0.000000000000  0.000000000000  0.000000000000  0.000000000000  0.000000000000  0.000000000000  0.000000000000  0.000000000000  0.000000000000
  0.000000000000  0.000000000000  0.000000000000  0.000000000000  0.000000000000  0.000000000000  1.000000000000
* p-type functions
   16   12
      10853.28165000
       4493.08084278
       1860.06187905
        770.03515293
        318.78194130
        131.97050253
         54.63362657
         22.61742658
          9.36324417
          3.87622973
          1.60469562
          0.66431770
          0.27501665
          0.11385239
          0.04713302
          0.01951230
  0.004924099618  0.000000000000  0.000000000000  0.000000000000  0.000000000000  0.000000000000  0.000000000000  0.000000000000  0.000000000000  0.000000000000  0.000000000000
  0.000000000000
  0.005905279781  0.000000000000  0.000000000000  0.000000000000  0.000000000000  0.000000000000  0.000000000000  0.000000000000  0.000000000000  0.000000000000  0.000000000000
  0.000000000000
  0.030521471756  0.000000000000  0.000000000000  0.000000000000  0.000000000000  0.000000000000  0.000000000000  0.000000000000  0.000000000000  0.000000000000  0.000000000000
  0.000000000000
  0.090523145668  0.000000000000  0.000000000000  0.000000000000  0.000000000000  0.000000000000  0.000000000000  0.000000000000  0.000000000000  0.000000000000  0.000000000000
  0.000000000000
  0.260545444341  0.000000000000  0.000000000000  0.000000000000  0.000000000000  0.000000000000  0.000000000000  0.000000000000  0.000000000000  0.000000000000  0.000000000000
  0.000000000000
  0.000000000000  1.000000000000  0.000000000000  0.000000000000  0.000000000000  0.000000000000  0.000000000000  0.000000000000  0.000000000000  0.000000000000  0.000000000000
  0.000000000000
  0.000000000000  0.000000000000  1.000000000000  0.000000000000  0.000000000000  0.000000000000  0.000000000000  0.000000000000  0.000000000000  0.000000000000  0.000000000000
  0.000000000000
  0.000000000000  0.000000000000  0.000000000000  1.000000000000  0.000000000000  0.000000000000  0.000000000000  0.000000000000  0.000000000000  0.000000000000  0.000000000000
  0.000000000000
  0.000000000000  0.000000000000  0.000000000000  0.000000000000  1.000000000000  0.000000000000  0.000000000000  0.000000000000  0.000000000000  0.000000000000  0.000000000000
  0.000000000000
  0.000000000000  0.000000000000  0.000000000000  0.000000000000  0.000000000000  1.000000000000  0.000000000000  0.000000000000  0.000000000000  0.000000000000  0.000000000000
  0.000000000000
  0.000000000000  0.000000000000  0.000000000000  0.000000000000  0.000000000000  0.000000000000  1.000000000000  0.000000000000  0.000000000000  0.000000000000  0.000000000000
  0.000000000000
  0.000000000000  0.000000000000  0.000000000000  0.000000000000  0.000000000000  0.000000000000  0.000000000000  1.000000000000  0.000000000000  0.000000000000  0.000000000000
  0.000000000000
  0.000000000000  0.000000000000  0.000000000000  0.000000000000  0.000000000000  0.000000000000  0.000000000000  0.000000000000  1.000000000000  0.000000000000  0.000000000000
  0.000000000000
  0.000000000000  0.000000000000  0.000000000000  0.000000000000  0.000000000000  0.000000000000  0.000000000000  0.000000000000  0.000000000000  1.000000000000  0.000000000000
  0.000000000000
  0.000000000000  0.000000000000  0.000000000000  0.000000000000  0.000000000000  0.000000000000  0.000000000000  0.000000000000  0.000000000000  0.000000000000  1.000000000000
  0.000000000000
  0.000000000000  0.000000000000  0.000000000000  0.000000000000  0.000000000000  0.000000000000  0.000000000000  0.000000000000  0.000000000000  0.000000000000  0.000000000000
  1.000000000000
* d-type functions
   12    9
        494.62642590
        210.88277184
         89.90935609
         38.33263496
         16.34302554
          6.96780913
          2.97070845
          1.26655431
          0.53999235
          0.23022442
          0.09815562
          0.04184841
  0.013592884948  0.000000000000  0.000000000000  0.000000000000  0.000000000000  0.000000000000  0.000000000000  0.000000000000  0.000000000000
  0.045225391126  0.000000000000  0.000000000000  0.000000000000  0.000000000000  0.000000000000  0.000000000000  0.000000000000  0.000000000000
  0.179951510889  0.000000000000  0.000000000000  0.000000000000  0.000000000000  0.000000000000  0.000000000000  0.000000000000  0.000000000000
  0.409214475558  0.000000000000  0.000000000000  0.000000000000  0.000000000000  0.000000000000  0.000000000000  0.000000000000  0.000000000000
  0.000000000000  1.000000000000  0.000000000000  0.000000000000  0.000000000000  0.000000000000  0.000000000000  0.000000000000  0.000000000000
  0.000000000000  0.000000000000  1.000000000000  0.000000000000  0.000000000000  0.000000000000  0.000000000000  0.000000000000  0.000000000000
  0.000000000000  0.000000000000  0.000000000000  1.000000000000  0.000000000000  0.000000000000  0.000000000000  0.000000000000  0.000000000000
  0.000000000000  0.000000000000  0.000000000000  0.000000000000  1.000000000000  0.000000000000  0.000000000000  0.000000000000  0.000000000000
  0.000000000000  0.000000000000  0.000000000000  0.000000000000  0.000000000000  1.000000000000  0.000000000000  0.000000000000  0.000000000000
  0.000000000000  0.000000000000  0.000000000000  0.000000000000  0.000000000000  0.000000000000  1.000000000000  0.000000000000  0.000000000000
  0.000000000000  0.000000000000  0.000000000000  0.000000000000  0.000000000000  0.000000000000  0.000000000000  1.000000000000  0.000000000000
  0.000000000000  0.000000000000  0.000000000000  0.000000000000  0.000000000000  0.000000000000  0.000000000000  0.000000000000  1.000000000000
* f-type functions
    7    4
         59.48763183
         23.90450250
          9.60578228
          3.85998634
          1.55109643
          0.62329239
          0.25046374
  0.017612161739  0.000000000000  0.000000000000  0.000000000000
  0.070283121668  0.000000000000  0.000000000000  0.000000000000
  0.228577119492  0.000000000000  0.000000000000  0.000000000000
  0.394062312330  0.000000000000  0.000000000000  0.000000000000
  0.000000000000  1.000000000000  0.000000000000  0.000000000000
  0.000000000000  0.000000000000  1.000000000000  0.000000000000
  0.000000000000  0.000000000000  0.000000000000  1.000000000000
* g-type functions
    3    3
         19.09500000
          4.75000000
     118159.20398e-5
  1.000000000000  0.000000000000  0.000000000000
  0.000000000000  1.000000000000  0.000000000000
  0.000000000000  0.000000000000  1.000000000000
* h-type functions
    2    2
         10.08970000
    3797546.01227e-6
  1.000000000000  0.000000000000
  0.000000000000  1.000000000000

/Nd.SARC2-QZVP-DKH2.Aravena.23s16p12d7f3g2h.18s12p9d4f3g2h.
D. Aravena, F. Neese, D.A. Pantazis. J. Chem. Theory Comput. 12 (2016) 1148-1156. doi:10.1021/acs.jctc.5b01048
NEODYMIUM (23s,16p,12d,7f,3g,2h) -> [18s,12p,9d,4f,3g,2h]
    60.0   5
* s-type functions
   23   18
    4733993.59100000
    1972381.34444000
     821777.23588400
     342387.04767700
     142652.88121700
      59435.20544220
      24763.21274290
      10317.39859880
       4298.66330156
       1791.00438965
        746.20794854
        310.90169610
        129.53475613
         53.96964139
         22.48602830
          9.36862754
          3.90336527
          1.62630656
          0.67758789
          0.28231169
          0.11762295
          0.04900668
          0.02041825
  0.002064076832  0.000000000000  0.000000000000  0.000000000000  0.000000000000  0.000000000000  0.000000000000  0.000000000000  0.000000000000  0.000000000000  0.000000000000
  0.000000000000  0.000000000000  0.000000000000  0.000000000000  0.000000000000  0.000000000000  0.000000000000
 -0.000463543903  0.000000000000  0.000000000000  0.000000000000  0.000000000000  0.000000000000  0.000000000000  0.000000000000  0.000000000000  0.000000000000  0.000000000000
  0.000000000000  0.000000000000  0.000000000000  0.000000000000  0.000000000000  0.000000000000  0.000000000000
  0.004115292168  0.000000000000  0.000000000000  0.000000000000  0.000000000000  0.000000000000  0.000000000000  0.000000000000  0.000000000000  0.000000000000  0.000000000000
  0.000000000000  0.000000000000  0.000000000000  0.000000000000  0.000000000000  0.000000000000  0.000000000000
  0.003228303094  0.000000000000  0.000000000000  0.000000000000  0.000000000000  0.000000000000  0.000000000000  0.000000000000  0.000000000000  0.000000000000  0.000000000000
  0.000000000000  0.000000000000  0.000000000000  0.000000000000  0.000000000000  0.000000000000  0.000000000000
  0.010123893752  0.000000000000  0.000000000000  0.000000000000  0.000000000000  0.000000000000  0.000000000000  0.000000000000  0.000000000000  0.000000000000  0.000000000000
  0.000000000000  0.000000000000  0.000000000000  0.000000000000  0.000000000000  0.000000000000  0.000000000000
  0.016783936414  0.000000000000  0.000000000000  0.000000000000  0.000000000000  0.000000000000  0.000000000000  0.000000000000  0.000000000000  0.000000000000  0.000000000000
  0.000000000000  0.000000000000  0.000000000000  0.000000000000  0.000000000000  0.000000000000  0.000000000000
  0.000000000000  1.000000000000  0.000000000000  0.000000000000  0.000000000000  0.000000000000  0.000000000000  0.000000000000  0.000000000000  0.000000000000  0.000000000000
  0.000000000000  0.000000000000  0.000000000000  0.000000000000  0.000000000000  0.000000000000  0.000000000000
  0.000000000000  0.000000000000  1.000000000000  0.000000000000  0.000000000000  0.000000000000  0.000000000000  0.000000000000  0.000000000000  0.000000000000  0.000000000000
  0.000000000000  0.000000000000  0.000000000000  0.000000000000  0.000000000000  0.000000000000  0.000000000000
  0.000000000000  0.000000000000  0.000000000000  1.000000000000  0.000000000000  0.000000000000  0.000000000000  0.000000000000  0.000000000000  0.000000000000  0.000000000000
  0.000000000000  0.000000000000  0.000000000000  0.000000000000  0.000000000000  0.000000000000  0.000000000000
  0.000000000000  0.000000000000  0.000000000000  0.000000000000  1.000000000000  0.000000000000  0.000000000000  0.000000000000  0.000000000000  0.000000000000  0.000000000000
  0.000000000000  0.000000000000  0.000000000000  0.000000000000  0.000000000000  0.000000000000  0.000000000000
  0.000000000000  0.000000000000  0.000000000000  0.000000000000  0.000000000000  1.000000000000  0.000000000000  0.000000000000  0.000000000000  0.000000000000  0.000000000000
  0.000000000000  0.000000000000  0.000000000000  0.000000000000  0.000000000000  0.000000000000  0.000000000000
  0.000000000000  0.000000000000  0.000000000000  0.000000000000  0.000000000000  0.000000000000  1.000000000000  0.000000000000  0.000000000000  0.000000000000  0.000000000000
  0.000000000000  0.000000000000  0.000000000000  0.000000000000  0.000000000000  0.000000000000  0.000000000000
  0.000000000000  0.000000000000  0.000000000000  0.000000000000  0.000000000000  0.000000000000  0.000000000000  1.000000000000  0.000000000000  0.000000000000  0.000000000000
  0.000000000000  0.000000000000  0.000000000000  0.000000000000  0.000000000000  0.000000000000  0.000000000000
  0.000000000000  0.000000000000  0.000000000000  0.000000000000  0.000000000000  0.000000000000  0.000000000000  0.000000000000  1.000000000000  0.000000000000  0.000000000000
  0.000000000000  0.000000000000  0.000000000000  0.000000000000  0.000000000000  0.000000000000  0.000000000000
  0.000000000000  0.000000000000  0.000000000000  0.000000000000  0.000000000000  0.000000000000  0.000000000000  0.000000000000  0.000000000000  1.000000000000  0.000000000000
  0.000000000000  0.000000000000  0.000000000000  0.000000000000  0.000000000000  0.000000000000  0.000000000000
  0.000000000000  0.000000000000  0.000000000000  0.000000000000  0.000000000000  0.000000000000  0.000000000000  0.000000000000  0.000000000000  0.000000000000  1.000000000000
  0.000000000000  0.000000000000  0.000000000000  0.000000000000  0.000000000000  0.000000000000  0.000000000000
  0.000000000000  0.000000000000  0.000000000000  0.000000000000  0.000000000000  0.000000000000  0.000000000000  0.000000000000  0.000000000000  0.000000000000  0.000000000000
  1.000000000000  0.000000000000  0.000000000000  0.000000000000  0.000000000000  0.000000000000  0.000000000000
  0.000000000000  0.000000000000  0.000000000000  0.000000000000  0.000000000000  0.000000000000  0.000000000000  0.000000000000  0.000000000000  0.000000000000  0.000000000000
  0.000000000000  1.000000000000  0.000000000000  0.000000000000  0.000000000000  0.000000000000  0.000000000000
  0.000000000000  0.000000000000  0.000000000000  0.000000000000  0.000000000000  0.000000000000  0.000000000000  0.000000000000  0.000000000000  0.000000000000  0.000000000000
  0.000000000000  0.000000000000  1.000000000000  0.000000000000  0.000000000000  0.000000000000  0.000000000000
  0.000000000000  0.000000000000  0.000000000000  0.000000000000  0.000000000000  0.000000000000  0.000000000000  0.000000000000  0.000000000000  0.000000000000  0.000000000000
  0.000000000000  0.000000000000  0.000000000000  1.000000000000  0.000000000000  0.000000000000  0.000000000000
  0.000000000000  0.000000000000  0.000000000000  0.000000000000  0.000000000000  0.000000000000  0.000000000000  0.000000000000  0.000000000000  0.000000000000  0.000000000000
  0.000000000000  0.000000000000  0.000000000000  0.000000000000  1.000000000000  0.000000000000  0.000000000000
  0.000000000000  0.000000000000  0.000000000000  0.000000000000  0.000000000000  0.000000000000  0.000000000000  0.000000000000  0.000000000000  0.000000000000  0.000000000000
  0.000000000000  0.000000000000  0.000000000000  0.000000000000  0.000000000000  1.000000000000  0.000000000000
  0.000000000000  0.000000000000  0.000000000000  0.000000000000  0.000000000000  0.000000000000  0.000000000000  0.000000000000  0.000000000000  0.000000000000  0.000000000000
  0.000000000000  0.000000000000  0.000000000000  0.000000000000  0.000000000000  0.000000000000  1.000000000000
* p-type functions
   16   12
      11485.00946000
       4743.39539574
       1959.05801895
        809.10571467
        334.16675319
        138.01338554
         57.00056755
         23.54166364
          9.72288437
          4.01562446
          1.65848314
          0.68496603
          0.28289613
          0.11683823
          0.04825507
          0.01992971
  0.004926361941  0.000000000000  0.000000000000  0.000000000000  0.000000000000  0.000000000000  0.000000000000  0.000000000000  0.000000000000  0.000000000000  0.000000000000
  0.000000000000
  0.005867026013  0.000000000000  0.000000000000  0.000000000000  0.000000000000  0.000000000000  0.000000000000  0.000000000000  0.000000000000  0.000000000000  0.000000000000
  0.000000000000
  0.030262968271  0.000000000000  0.000000000000  0.000000000000  0.000000000000  0.000000000000  0.000000000000  0.000000000000  0.000000000000  0.000000000000  0.000000000000
  0.000000000000
  0.089700150347  0.000000000000  0.000000000000  0.000000000000  0.000000000000  0.000000000000  0.000000000000  0.000000000000  0.000000000000  0.000000000000  0.000000000000
  0.000000000000
  0.259088913810  0.000000000000  0.000000000000  0.000000000000  0.000000000000  0.000000000000  0.000000000000  0.000000000000  0.000000000000  0.000000000000  0.000000000000
  0.000000000000
  0.000000000000  1.000000000000  0.000000000000  0.000000000000  0.000000000000  0.000000000000  0.000000000000  0.000000000000  0.000000000000  0.000000000000  0.000000000000
  0.000000000000
  0.000000000000  0.000000000000  1.000000000000  0.000000000000  0.000000000000  0.000000000000  0.000000000000  0.000000000000  0.000000000000  0.000000000000  0.000000000000
  0.000000000000
  0.000000000000  0.000000000000  0.000000000000  1.000000000000  0.000000000000  0.000000000000  0.000000000000  0.000000000000  0.000000000000  0.000000000000  0.000000000000
  0.000000000000
  0.000000000000  0.000000000000  0.000000000000  0.000000000000  1.000000000000  0.000000000000  0.000000000000  0.000000000000  0.000000000000  0.000000000000  0.000000000000
  0.000000000000
  0.000000000000  0.000000000000  0.000000000000  0.000000000000  0.000000000000  1.000000000000  0.000000000000  0.000000000000  0.000000000000  0.000000000000  0.000000000000
  0.000000000000
  0.000000000000  0.000000000000  0.000000000000  0.000000000000  0.000000000000  0.000000000000  1.000000000000  0.000000000000  0.000000000000  0.000000000000  0.000000000000
  0.000000000000
  0.000000000000  0.000000000000  0.000000000000  0.000000000000  0.000000000000  0.000000000000  0.000000000000  1.000000000000  0.000000000000  0.000000000000  0.000000000000
  0.000000000000
  0.000000000000  0.000000000000  0.000000000000  0.000000000000  0.000000000000  0.000000000000  0.000000000000  0.000000000000  1.000000000000  0.000000000000  0.000000000000
  0.000000000000
  0.000000000000  0.000000000000  0.000000000000  0.000000000000  0.000000000000  0.000000000000  0.000000000000  0.000000000000  0.000000000000  1.000000000000  0.000000000000
  0.000000000000
  0.000000000000  0.000000000000  0.000000000000  0.000000000000  0.000000000000  0.000000000000  0.000000000000  0.000000000000  0.000000000000  0.000000000000  1.000000000000
  0.000000000000
  0.000000000000  0.000000000000  0.000000000000  0.000000000000  0.000000000000  0.000000000000  0.000000000000  0.000000000000  0.000000000000  0.000000000000  0.000000000000
  1.000000000000
* d-type functions
   12    9
        513.81602930
        218.44102176
         92.86685753
         39.48092331
         16.78471035
          7.13576275
          3.03366033
          1.28971426
          0.54830228
          0.23310232
          0.09909989
          0.04213080
  0.013733973512  0.000000000000  0.000000000000  0.000000000000  0.000000000000  0.000000000000  0.000000000000  0.000000000000  0.000000000000
  0.046034694466  0.000000000000  0.000000000000  0.000000000000  0.000000000000  0.000000000000  0.000000000000  0.000000000000  0.000000000000
  0.183229471503  0.000000000000  0.000000000000  0.000000000000  0.000000000000  0.000000000000  0.000000000000  0.000000000000  0.000000000000
  0.415567978136  0.000000000000  0.000000000000  0.000000000000  0.000000000000  0.000000000000  0.000000000000  0.000000000000  0.000000000000
  0.000000000000  1.000000000000  0.000000000000  0.000000000000  0.000000000000  0.000000000000  0.000000000000  0.000000000000  0.000000000000
  0.000000000000  0.000000000000  1.000000000000  0.000000000000  0.000000000000  0.000000000000  0.000000000000  0.000000000000  0.000000000000
  0.000000000000  0.000000000000  0.000000000000  1.000000000000  0.000000000000  0.000000000000  0.000000000000  0.000000000000  0.000000000000
  0.000000000000  0.000000000000  0.000000000000  0.000000000000  1.000000000000  0.000000000000  0.000000000000  0.000000000000  0.000000000000
  0.000000000000  0.000000000000  0.000000000000  0.000000000000  0.000000000000  1.000000000000  0.000000000000  0.000000000000  0.000000000000
  0.000000000000  0.000000000000  0.000000000000  0.000000000000  0.000000000000  0.000000000000  1.000000000000  0.000000000000  0.000000000000
  0.000000000000  0.000000000000  0.000000000000  0.000000000000  0.000000000000  0.000000000000  0.000000000000  1.000000000000  0.000000000000
  0.000000000000  0.000000000000  0.000000000000  0.000000000000  0.000000000000  0.000000000000  0.000000000000  0.000000000000  1.000000000000
* f-type functions
    7    4
         63.56175257
         25.56002724
         10.27842950
          4.13325510
          1.66210195
          0.66837948
          0.26877481
  0.017526487746  0.000000000000  0.000000000000  0.000000000000
  0.070773544032  0.000000000000  0.000000000000  0.000000000000
  0.231147929136  0.000000000000  0.000000000000  0.000000000000
  0.397169337416  0.000000000000  0.000000000000  0.000000000000
  0.000000000000  1.000000000000  0.000000000000  0.000000000000
  0.000000000000  0.000000000000  1.000000000000  0.000000000000
  0.000000000000  0.000000000000  0.000000000000  1.000000000000
* g-type functions
    3    3
         18.09050000
          4.85000000
    1300268.09651e-6
  1.000000000000  0.000000000000  0.000000000000
  0.000000000000  1.000000000000  0.000000000000
  0.000000000000  0.000000000000  1.000000000000
* h-type functions
    2    2
         10.65900000
    3915151.51515e-6
  1.000000000000  0.000000000000
  0.000000000000  1.000000000000

/Pm.SARC2-QZVP-DKH2.Aravena.23s16p12d7f3g2h.18s12p9d4f3g2h.
D. Aravena, F. Neese, D.A. Pantazis. J. Chem. Theory Comput. 12 (2016) 1148-1156. doi:10.1021/acs.jctc.5b01048
PROMETHIUM (23s,16p,12d,7f,3g,2h) -> [18s,12p,9d,4f,3g,2h]
    61.0   5
* s-type functions
   23   18
    4863007.09700000
    2026623.84553000
     844581.16744000
     351973.23369600
     146682.35809000
      61128.83627210
      25475.01057830
      10616.53065130
       4424.36413223
       1843.82248942
        768.39999396
        320.22526795
        133.45161770
         55.61501870
         23.17716607
          9.65892019
          4.02528674
          1.67750981
          0.69909036
          0.29134097
          0.12141429
          0.05059855
          0.02108659
  0.002151082427  0.000000000000  0.000000000000  0.000000000000  0.000000000000  0.000000000000  0.000000000000  0.000000000000  0.000000000000  0.000000000000  0.000000000000
  0.000000000000  0.000000000000  0.000000000000  0.000000000000  0.000000000000  0.000000000000  0.000000000000
 -0.000489686998  0.000000000000  0.000000000000  0.000000000000  0.000000000000  0.000000000000  0.000000000000  0.000000000000  0.000000000000  0.000000000000  0.000000000000
  0.000000000000  0.000000000000  0.000000000000  0.000000000000  0.000000000000  0.000000000000  0.000000000000
  0.004278528550  0.000000000000  0.000000000000  0.000000000000  0.000000000000  0.000000000000  0.000000000000  0.000000000000  0.000000000000  0.000000000000  0.000000000000
  0.000000000000  0.000000000000  0.000000000000  0.000000000000  0.000000000000  0.000000000000  0.000000000000
  0.003321462872  0.000000000000  0.000000000000  0.000000000000  0.000000000000  0.000000000000  0.000000000000  0.000000000000  0.000000000000  0.000000000000  0.000000000000
  0.000000000000  0.000000000000  0.000000000000  0.000000000000  0.000000000000  0.000000000000  0.000000000000
  0.010452223594  0.000000000000  0.000000000000  0.000000000000  0.000000000000  0.000000000000  0.000000000000  0.000000000000  0.000000000000  0.000000000000  0.000000000000
  0.000000000000  0.000000000000  0.000000000000  0.000000000000  0.000000000000  0.000000000000  0.000000000000
  0.017213803058  0.000000000000  0.000000000000  0.000000000000  0.000000000000  0.000000000000  0.000000000000  0.000000000000  0.000000000000  0.000000000000  0.000000000000
  0.000000000000  0.000000000000  0.000000000000  0.000000000000  0.000000000000  0.000000000000  0.000000000000
  0.000000000000  1.000000000000  0.000000000000  0.000000000000  0.000000000000  0.000000000000  0.000000000000  0.000000000000  0.000000000000  0.000000000000  0.000000000000
  0.000000000000  0.000000000000  0.000000000000  0.000000000000  0.000000000000  0.000000000000  0.000000000000
  0.000000000000  0.000000000000  1.000000000000  0.000000000000  0.000000000000  0.000000000000  0.000000000000  0.000000000000  0.000000000000  0.000000000000  0.000000000000
  0.000000000000  0.000000000000  0.000000000000  0.000000000000  0.000000000000  0.000000000000  0.000000000000
  0.000000000000  0.000000000000  0.000000000000  1.000000000000  0.000000000000  0.000000000000  0.000000000000  0.000000000000  0.000000000000  0.000000000000  0.000000000000
  0.000000000000  0.000000000000  0.000000000000  0.000000000000  0.000000000000  0.000000000000  0.000000000000
  0.000000000000  0.000000000000  0.000000000000  0.000000000000  1.000000000000  0.000000000000  0.000000000000  0.000000000000  0.000000000000  0.000000000000  0.000000000000
  0.000000000000  0.000000000000  0.000000000000  0.000000000000  0.000000000000  0.000000000000  0.000000000000
  0.000000000000  0.000000000000  0.000000000000  0.000000000000  0.000000000000  1.000000000000  0.000000000000  0.000000000000  0.000000000000  0.000000000000  0.000000000000
  0.000000000000  0.000000000000  0.000000000000  0.000000000000  0.000000000000  0.000000000000  0.000000000000
  0.000000000000  0.000000000000  0.000000000000  0.000000000000  0.000000000000  0.000000000000  1.000000000000  0.000000000000  0.000000000000  0.000000000000  0.000000000000
  0.000000000000  0.000000000000  0.000000000000  0.000000000000  0.000000000000  0.000000000000  0.000000000000
  0.000000000000  0.000000000000  0.000000000000  0.000000000000  0.000000000000  0.000000000000  0.000000000000  1.000000000000  0.000000000000  0.000000000000  0.000000000000
  0.000000000000  0.000000000000  0.000000000000  0.000000000000  0.000000000000  0.000000000000  0.000000000000
  0.000000000000  0.000000000000  0.000000000000  0.000000000000  0.000000000000  0.000000000000  0.000000000000  0.000000000000  1.000000000000  0.000000000000  0.000000000000
  0.000000000000  0.000000000000  0.000000000000  0.000000000000  0.000000000000  0.000000000000  0.000000000000
  0.000000000000  0.000000000000  0.000000000000  0.000000000000  0.000000000000  0.000000000000  0.000000000000  0.000000000000  0.000000000000  1.000000000000  0.000000000000
  0.000000000000  0.000000000000  0.000000000000  0.000000000000  0.000000000000  0.000000000000  0.000000000000
  0.000000000000  0.000000000000  0.000000000000  0.000000000000  0.000000000000  0.000000000000  0.000000000000  0.000000000000  0.000000000000  0.000000000000  1.000000000000
  0.000000000000  0.000000000000  0.000000000000  0.000000000000  0.000000000000  0.000000000000  0.000000000000
  0.000000000000  0.000000000000  0.000000000000  0.000000000000  0.000000000000  0.000000000000  0.000000000000  0.000000000000  0.000000000000  0.000000000000  0.000000000000
  1.000000000000  0.000000000000  0.000000000000  0.000000000000  0.000000000000  0.000000000000  0.000000000000
  0.000000000000  0.000000000000  0.000000000000  0.000000000000  0.000000000000  0.000000000000  0.000000000000  0.000000000000  0.000000000000  0.000000000000  0.000000000000
  0.000000000000  1.000000000000  0.000000000000  0.000000000000  0.000000000000  0.000000000000  0.000000000000
  0.000000000000  0.000000000000  0.000000000000  0.000000000000  0.000000000000  0.000000000000  0.000000000000  0.000000000000  0.000000000000  0.000000000000  0.000000000000
  0.000000000000  0.000000000000  1.000000000000  0.000000000000  0.000000000000  0.000000000000  0.000000000000
  0.000000000000  0.000000000000  0.000000000000  0.000000000000  0.000000000000  0.000000000000  0.000000000000  0.000000000000  0.000000000000  0.000000000000  0.000000000000
  0.000000000000  0.000000000000  0.000000000000  1.000000000000  0.000000000000  0.000000000000  0.000000000000
  0.000000000000  0.000000000000  0.000000000000  0.000000000000  0.000000000000  0.000000000000  0.000000000000  0.000000000000  0.000000000000  0.000000000000  0.000000000000
  0.000000000000  0.000000000000  0.000000000000  0.000000000000  1.000000000000  0.000000000000  0.000000000000
  0.000000000000  0.000000000000  0.000000000000  0.000000000000  0.000000000000  0.000000000000  0.000000000000  0.000000000000  0.000000000000  0.000000000000  0.000000000000
  0.000000000000  0.000000000000  0.000000000000  0.000000000000  0.000000000000  1.000000000000  0.000000000000
  0.000000000000  0.000000000000  0.000000000000  0.000000000000  0.000000000000  0.000000000000  0.000000000000  0.000000000000  0.000000000000  0.000000000000  0.000000000000
  0.000000000000  0.000000000000  0.000000000000  0.000000000000  0.000000000000  0.000000000000  1.000000000000
* p-type functions
   16   12
      12181.13671000
       5017.84673598
       2067.03089089
        851.48409840
        350.75681405
        144.48930148
         59.52032122
         24.51855329
         10.10007075
          4.16058109
          1.71389245
          0.70601372
          0.29083235
          0.11980427
          0.04935167
          0.02032972
  0.004913570900  0.000000000000  0.000000000000  0.000000000000  0.000000000000  0.000000000000  0.000000000000  0.000000000000  0.000000000000  0.000000000000  0.000000000000
  0.000000000000
  0.005815337541  0.000000000000  0.000000000000  0.000000000000  0.000000000000  0.000000000000  0.000000000000  0.000000000000  0.000000000000  0.000000000000  0.000000000000
  0.000000000000
  0.029922984715  0.000000000000  0.000000000000  0.000000000000  0.000000000000  0.000000000000  0.000000000000  0.000000000000  0.000000000000  0.000000000000  0.000000000000
  0.000000000000
  0.088681113915  0.000000000000  0.000000000000  0.000000000000  0.000000000000  0.000000000000  0.000000000000  0.000000000000  0.000000000000  0.000000000000  0.000000000000
  0.000000000000
  0.257205847959  0.000000000000  0.000000000000  0.000000000000  0.000000000000  0.000000000000  0.000000000000  0.000000000000  0.000000000000  0.000000000000  0.000000000000
  0.000000000000
  0.000000000000  1.000000000000  0.000000000000  0.000000000000  0.000000000000  0.000000000000  0.000000000000  0.000000000000  0.000000000000  0.000000000000  0.000000000000
  0.000000000000
  0.000000000000  0.000000000000  1.000000000000  0.000000000000  0.000000000000  0.000000000000  0.000000000000  0.000000000000  0.000000000000  0.000000000000  0.000000000000
  0.000000000000
  0.000000000000  0.000000000000  0.000000000000  1.000000000000  0.000000000000  0.000000000000  0.000000000000  0.000000000000  0.000000000000  0.000000000000  0.000000000000
  0.000000000000
  0.000000000000  0.000000000000  0.000000000000  0.000000000000  1.000000000000  0.000000000000  0.000000000000  0.000000000000  0.000000000000  0.000000000000  0.000000000000
  0.000000000000
  0.000000000000  0.000000000000  0.000000000000  0.000000000000  0.000000000000  1.000000000000  0.000000000000  0.000000000000  0.000000000000  0.000000000000  0.000000000000
  0.000000000000
  0.000000000000  0.000000000000  0.000000000000  0.000000000000  0.000000000000  0.000000000000  1.000000000000  0.000000000000  0.000000000000  0.000000000000  0.000000000000
  0.000000000000
  0.000000000000  0.000000000000  0.000000000000  0.000000000000  0.000000000000  0.000000000000  0.000000000000  1.000000000000  0.000000000000  0.000000000000  0.000000000000
  0.000000000000
  0.000000000000  0.000000000000  0.000000000000  0.000000000000  0.000000000000  0.000000000000  0.000000000000  0.000000000000  1.000000000000  0.000000000000  0.000000000000
  0.000000000000
  0.000000000000  0.000000000000  0.000000000000  0.000000000000  0.000000000000  0.000000000000  0.000000000000  0.000000000000  0.000000000000  1.000000000000  0.000000000000
  0.000000000000
  0.000000000000  0.000000000000  0.000000000000  0.000000000000  0.000000000000  0.000000000000  0.000000000000  0.000000000000  0.000000000000  0.000000000000  1.000000000000
  0.000000000000
  0.000000000000  0.000000000000  0.000000000000  0.000000000000  0.000000000000  0.000000000000  0.000000000000  0.000000000000  0.000000000000  0.000000000000  0.000000000000
  1.000000000000
* d-type functions
   12    9
        533.00563270
        225.92753275
         95.76493553
         40.59232076
         17.20605246
          7.29320807
          3.09140543
          1.31036814
          0.55543173
          0.23543339
          0.09979422
          0.04230023
  0.013894594922  0.000000000000  0.000000000000  0.000000000000  0.000000000000  0.000000000000  0.000000000000  0.000000000000  0.000000000000
  0.046916873497  0.000000000000  0.000000000000  0.000000000000  0.000000000000  0.000000000000  0.000000000000  0.000000000000  0.000000000000
  0.186771749619  0.000000000000  0.000000000000  0.000000000000  0.000000000000  0.000000000000  0.000000000000  0.000000000000  0.000000000000
  0.422112283219  0.000000000000  0.000000000000  0.000000000000  0.000000000000  0.000000000000  0.000000000000  0.000000000000  0.000000000000
  0.000000000000  1.000000000000  0.000000000000  0.000000000000  0.000000000000  0.000000000000  0.000000000000  0.000000000000  0.000000000000
  0.000000000000  0.000000000000  1.000000000000  0.000000000000  0.000000000000  0.000000000000  0.000000000000  0.000000000000  0.000000000000
  0.000000000000  0.000000000000  0.000000000000  1.000000000000  0.000000000000  0.000000000000  0.000000000000  0.000000000000  0.000000000000
  0.000000000000  0.000000000000  0.000000000000  0.000000000000  1.000000000000  0.000000000000  0.000000000000  0.000000000000  0.000000000000
  0.000000000000  0.000000000000  0.000000000000  0.000000000000  0.000000000000  1.000000000000  0.000000000000  0.000000000000  0.000000000000
  0.000000000000  0.000000000000  0.000000000000  0.000000000000  0.000000000000  0.000000000000  1.000000000000  0.000000000000  0.000000000000
  0.000000000000  0.000000000000  0.000000000000  0.000000000000  0.000000000000  0.000000000000  0.000000000000  1.000000000000  0.000000000000
  0.000000000000  0.000000000000  0.000000000000  0.000000000000  0.000000000000  0.000000000000  0.000000000000  0.000000000000  1.000000000000
* f-type functions
    7    4
         67.32247941
         27.07824994
         10.89133416
          4.38068044
          1.76198442
          0.70870020
          0.28505131
  0.017620929257  0.000000000000  0.000000000000  0.000000000000
  0.071837711669  0.000000000000  0.000000000000  0.000000000000
  0.234762552082  0.000000000000  0.000000000000  0.000000000000
  0.400435331907  0.000000000000  0.000000000000  0.000000000000
  0.000000000000  1.000000000000  0.000000000000  0.000000000000
  0.000000000000  0.000000000000  1.000000000000  0.000000000000
  0.000000000000  0.000000000000  0.000000000000  1.000000000000
* g-type functions
    3    3
         17.27550000
          4.95000000
    1418338.10888e-6
  1.000000000000  0.000000000000  0.000000000000
  0.000000000000  1.000000000000  0.000000000000
  0.000000000000  0.000000000000  1.000000000000
* h-type functions
    2    2
         11.15560000
          4.00000000
  1.000000000000  0.000000000000
  0.000000000000  1.000000000000

/Sm.SARC2-QZVP-DKH2.Aravena.23s16p12d7f3g2h.18s12p9d4f3g2h.
D. Aravena, F. Neese, D.A. Pantazis. J. Chem. Theory Comput. 12 (2016) 1148-1156. doi:10.1021/acs.jctc.5b01048
SAMARIUM (23s,16p,12d,7f,3g,2h) -> [18s,12p,9d,4f,3g,2h]
    62.0   5
* s-type functions
   23   18
    5612784.16000000
    2326027.74170000
     963943.18771800
     399473.51120900
     165548.22752100
      68605.83960240
      28431.35984010
      11782.41133760
       4882.82015737
       2023.51895602
        838.57869702
        347.52045638
        144.01804868
         59.68338831
         24.73375298
         10.25006377
          4.24779076
          1.76035259
          0.72951834
          0.30232409
          0.12528795
          0.05192134
          0.02151703
  0.002053819344  0.000000000000  0.000000000000  0.000000000000  0.000000000000  0.000000000000  0.000000000000  0.000000000000  0.000000000000  0.000000000000  0.000000000000
  0.000000000000  0.000000000000  0.000000000000  0.000000000000  0.000000000000  0.000000000000  0.000000000000
 -0.000427989608  0.000000000000  0.000000000000  0.000000000000  0.000000000000  0.000000000000  0.000000000000  0.000000000000  0.000000000000  0.000000000000  0.000000000000
  0.000000000000  0.000000000000  0.000000000000  0.000000000000  0.000000000000  0.000000000000  0.000000000000
  0.004087303018  0.000000000000  0.000000000000  0.000000000000  0.000000000000  0.000000000000  0.000000000000  0.000000000000  0.000000000000  0.000000000000  0.000000000000
  0.000000000000  0.000000000000  0.000000000000  0.000000000000  0.000000000000  0.000000000000  0.000000000000
  0.003261486124  0.000000000000  0.000000000000  0.000000000000  0.000000000000  0.000000000000  0.000000000000  0.000000000000  0.000000000000  0.000000000000  0.000000000000
  0.000000000000  0.000000000000  0.000000000000  0.000000000000  0.000000000000  0.000000000000  0.000000000000
  0.010064130743  0.000000000000  0.000000000000  0.000000000000  0.000000000000  0.000000000000  0.000000000000  0.000000000000  0.000000000000  0.000000000000  0.000000000000
  0.000000000000  0.000000000000  0.000000000000  0.000000000000  0.000000000000  0.000000000000  0.000000000000
  0.016636727384  0.000000000000  0.000000000000  0.000000000000  0.000000000000  0.000000000000  0.000000000000  0.000000000000  0.000000000000  0.000000000000  0.000000000000
  0.000000000000  0.000000000000  0.000000000000  0.000000000000  0.000000000000  0.000000000000  0.000000000000
  0.000000000000  1.000000000000  0.000000000000  0.000000000000  0.000000000000  0.000000000000  0.000000000000  0.000000000000  0.000000000000  0.000000000000  0.000000000000
  0.000000000000  0.000000000000  0.000000000000  0.000000000000  0.000000000000  0.000000000000  0.000000000000
  0.000000000000  0.000000000000  1.000000000000  0.000000000000  0.000000000000  0.000000000000  0.000000000000  0.000000000000  0.000000000000  0.000000000000  0.000000000000
  0.000000000000  0.000000000000  0.000000000000  0.000000000000  0.000000000000  0.000000000000  0.000000000000
  0.000000000000  0.000000000000  0.000000000000  1.000000000000  0.000000000000  0.000000000000  0.000000000000  0.000000000000  0.000000000000  0.000000000000  0.000000000000
  0.000000000000  0.000000000000  0.000000000000  0.000000000000  0.000000000000  0.000000000000  0.000000000000
  0.000000000000  0.000000000000  0.000000000000  0.000000000000  1.000000000000  0.000000000000  0.000000000000  0.000000000000  0.000000000000  0.000000000000  0.000000000000
  0.000000000000  0.000000000000  0.000000000000  0.000000000000  0.000000000000  0.000000000000  0.000000000000
  0.000000000000  0.000000000000  0.000000000000  0.000000000000  0.000000000000  1.000000000000  0.000000000000  0.000000000000  0.000000000000  0.000000000000  0.000000000000
  0.000000000000  0.000000000000  0.000000000000  0.000000000000  0.000000000000  0.000000000000  0.000000000000
  0.000000000000  0.000000000000  0.000000000000  0.000000000000  0.000000000000  0.000000000000  1.000000000000  0.000000000000  0.000000000000  0.000000000000  0.000000000000
  0.000000000000  0.000000000000  0.000000000000  0.000000000000  0.000000000000  0.000000000000  0.000000000000
  0.000000000000  0.000000000000  0.000000000000  0.000000000000  0.000000000000  0.000000000000  0.000000000000  1.000000000000  0.000000000000  0.000000000000  0.000000000000
  0.000000000000  0.000000000000  0.000000000000  0.000000000000  0.000000000000  0.000000000000  0.000000000000
  0.000000000000  0.000000000000  0.000000000000  0.000000000000  0.000000000000  0.000000000000  0.000000000000  0.000000000000  1.000000000000  0.000000000000  0.000000000000
  0.000000000000  0.000000000000  0.000000000000  0.000000000000  0.000000000000  0.000000000000  0.000000000000
  0.000000000000  0.000000000000  0.000000000000  0.000000000000  0.000000000000  0.000000000000  0.000000000000  0.000000000000  0.000000000000  1.000000000000  0.000000000000
  0.000000000000  0.000000000000  0.000000000000  0.000000000000  0.000000000000  0.000000000000  0.000000000000
  0.000000000000  0.000000000000  0.000000000000  0.000000000000  0.000000000000  0.000000000000  0.000000000000  0.000000000000  0.000000000000  0.000000000000  1.000000000000
  0.000000000000  0.000000000000  0.000000000000  0.000000000000  0.000000000000  0.000000000000  0.000000000000
  0.000000000000  0.000000000000  0.000000000000  0.000000000000  0.000000000000  0.000000000000  0.000000000000  0.000000000000  0.000000000000  0.000000000000  0.000000000000
  1.000000000000  0.000000000000  0.000000000000  0.000000000000  0.000000000000  0.000000000000  0.000000000000
  0.000000000000  0.000000000000  0.000000000000  0.000000000000  0.000000000000  0.000000000000  0.000000000000  0.000000000000  0.000000000000  0.000000000000  0.000000000000
  0.000000000000  1.000000000000  0.000000000000  0.000000000000  0.000000000000  0.000000000000  0.000000000000
  0.000000000000  0.000000000000  0.000000000000  0.000000000000  0.000000000000  0.000000000000  0.000000000000  0.000000000000  0.000000000000  0.000000000000  0.000000000000
  0.000000000000  0.000000000000  1.000000000000  0.000000000000  0.000000000000  0.000000000000  0.000000000000
  0.000000000000  0.000000000000  0.000000000000  0.000000000000  0.000000000000  0.000000000000  0.000000000000  0.000000000000  0.000000000000  0.000000000000  0.000000000000
  0.000000000000  0.000000000000  0.000000000000  1.000000000000  0.000000000000  0.000000000000  0.000000000000
  0.000000000000  0.000000000000  0.000000000000  0.000000000000  0.000000000000  0.000000000000  0.000000000000  0.000000000000  0.000000000000  0.000000000000  0.000000000000
  0.000000000000  0.000000000000  0.000000000000  0.000000000000  1.000000000000  0.000000000000  0.000000000000
  0.000000000000  0.000000000000  0.000000000000  0.000000000000  0.000000000000  0.000000000000  0.000000000000  0.000000000000  0.000000000000  0.000000000000  0.000000000000
  0.000000000000  0.000000000000  0.000000000000  0.000000000000  0.000000000000  1.000000000000  0.000000000000
  0.000000000000  0.000000000000  0.000000000000  0.000000000000  0.000000000000  0.000000000000  0.000000000000  0.000000000000  0.000000000000  0.000000000000  0.000000000000
  0.000000000000  0.000000000000  0.000000000000  0.000000000000  0.000000000000  0.000000000000  1.000000000000
* p-type functions
   16   12
      12843.87165000
       5275.19225837
       2166.60942441
        889.86261884
        365.48141603
        150.10931197
         61.65239750
         25.32166771
         10.40003117
          4.27146622
          1.75436240
          0.72054589
          0.29594021
          0.12154758
          0.04992162
          0.02050364
  0.004931874888  0.000000000000  0.000000000000  0.000000000000  0.000000000000  0.000000000000  0.000000000000  0.000000000000  0.000000000000  0.000000000000  0.000000000000
  0.000000000000
  0.005819091571  0.000000000000  0.000000000000  0.000000000000  0.000000000000  0.000000000000  0.000000000000  0.000000000000  0.000000000000  0.000000000000  0.000000000000
  0.000000000000
  0.029846781271  0.000000000000  0.000000000000  0.000000000000  0.000000000000  0.000000000000  0.000000000000  0.000000000000  0.000000000000  0.000000000000  0.000000000000
  0.000000000000
  0.088444647940  0.000000000000  0.000000000000  0.000000000000  0.000000000000  0.000000000000  0.000000000000  0.000000000000  0.000000000000  0.000000000000  0.000000000000
  0.000000000000
  0.257192035122  0.000000000000  0.000000000000  0.000000000000  0.000000000000  0.000000000000  0.000000000000  0.000000000000  0.000000000000  0.000000000000  0.000000000000
  0.000000000000
  0.000000000000  1.000000000000  0.000000000000  0.000000000000  0.000000000000  0.000000000000  0.000000000000  0.000000000000  0.000000000000  0.000000000000  0.000000000000
  0.000000000000
  0.000000000000  0.000000000000  1.000000000000  0.000000000000  0.000000000000  0.000000000000  0.000000000000  0.000000000000  0.000000000000  0.000000000000  0.000000000000
  0.000000000000
[...]
  0.000000000000
  0.005717671140  0.000000000000  0.000000000000  0.000000000000  0.000000000000  0.000000000000  0.000000000000  0.000000000000  0.000000000000  0.000000000000  0.000000000000
  0.000000000000
  0.028546397661  0.000000000000  0.000000000000  0.000000000000  0.000000000000  0.000000000000  0.000000000000  0.000000000000  0.000000000000  0.000000000000  0.000000000000
  0.000000000000
  0.083932363441  0.000000000000  0.000000000000  0.000000000000  0.000000000000  0.000000000000  0.000000000000  0.000000000000  0.000000000000  0.000000000000  0.000000000000
  0.000000000000
  0.249218574808  0.000000000000  0.000000000000  0.000000000000  0.000000000000  0.000000000000  0.000000000000  0.000000000000  0.000000000000  0.000000000000  0.000000000000
  0.000000000000
  0.000000000000  1.000000000000  0.000000000000  0.000000000000  0.000000000000  0.000000000000  0.000000000000  0.000000000000  0.000000000000  0.000000000000  0.000000000000
  0.000000000000
  0.000000000000  0.000000000000  1.000000000000  0.000000000000  0.000000000000  0.000000000000  0.000000000000  0.000000000000  0.000000000000  0.000000000000  0.000000000000
  0.000000000000
  0.000000000000  0.000000000000  0.000000000000  1.000000000000  0.000000000000  0.000000000000  0.000000000000  0.000000000000  0.000000000000  0.000000000000  0.000000000000
  0.000000000000
  0.000000000000  0.000000000000  0.000000000000  0.000000000000  1.000000000000  0.000000000000  0.000000000000  0.000000000000  0.000000000000  0.000000000000  0.000000000000
  0.000000000000
  0.000000000000  0.000000000000  0.000000000000  0.000000000000  0.000000000000  1.000000000000  0.000000000000  0.000000000000  0.000000000000  0.000000000000  0.000000000000
  0.000000000000
  0.000000000000  0.000000000000  0.000000000000  0.000000000000  0.000000000000  0.000000000000  1.000000000000  0.000000000000  0.000000000000  0.000000000000  0.000000000000
  0.000000000000
  0.000000000000  0.000000000000  0.000000000000  0.000000000000  0.000000000000  0.000000000000  0.000000000000  1.000000000000  0.000000000000  0.000000000000  0.000000000000
  0.000000000000
  0.000000000000  0.000000000000  0.000000000000  0.000000000000  0.000000000000  0.000000000000  0.000000000000  0.000000000000  1.000000000000  0.000000000000  0.000000000000
  0.000000000000
  0.000000000000  0.000000000000  0.000000000000  0.000000000000  0.000000000000  0.000000000000  0.000000000000  0.000000000000  0.000000000000  1.000000000000  0.000000000000
  0.000000000000
  0.000000000000  0.000000000000  0.000000000000  0.000000000000  0.000000000000  0.000000000000  0.000000000000  0.000000000000  0.000000000000  0.000000000000  1.000000000000
  0.000000000000
  0.000000000000  0.000000000000  0.000000000000  0.000000000000  0.000000000000  0.000000000000  0.000000000000  0.000000000000  0.000000000000  0.000000000000  0.000000000000
  1.000000000000
* d-type functions
   12    9
        619.35884780
        256.70574279
        106.39686285
         44.09832168
         18.27743717
          7.57545178
          3.13979849
          1.30135269
          0.53937182
          0.22355351
          0.09265625
          0.03840325
  0.020432670708  0.000000000000  0.000000000000  0.000000000000  0.000000000000  0.000000000000  0.000000000000  0.000000000000  0.000000000000
  0.069355954247  0.000000000000  0.000000000000  0.000000000000  0.000000000000  0.000000000000  0.000000000000  0.000000000000  0.000000000000
  0.260821658087  0.000000000000  0.000000000000  0.000000000000  0.000000000000  0.000000000000  0.000000000000  0.000000000000  0.000000000000
  0.494557647092  0.000000000000  0.000000000000  0.000000000000  0.000000000000  0.000000000000  0.000000000000  0.000000000000  0.000000000000
  0.000000000000  1.000000000000  0.000000000000  0.000000000000  0.000000000000  0.000000000000  0.000000000000  0.000000000000  0.000000000000
  0.000000000000  0.000000000000  1.000000000000  0.000000000000  0.000000000000  0.000000000000  0.000000000000  0.000000000000  0.000000000000
  0.000000000000  0.000000000000  0.000000000000  1.000000000000  0.000000000000  0.000000000000  0.000000000000  0.000000000000  0.000000000000
  0.000000000000  0.000000000000  0.000000000000  0.000000000000  1.000000000000  0.000000000000  0.000000000000  0.000000000000  0.000000000000
  0.000000000000  0.000000000000  0.000000000000  0.000000000000  0.000000000000  1.000000000000  0.000000000000  0.000000000000  0.000000000000
  0.000000000000  0.000000000000  0.000000000000  0.000000000000  0.000000000000  0.000000000000  1.000000000000  0.000000000000  0.000000000000
  0.000000000000  0.000000000000  0.000000000000  0.000000000000  0.000000000000  0.000000000000  0.000000000000  1.000000000000  0.000000000000
  0.000000000000  0.000000000000  0.000000000000  0.000000000000  0.000000000000  0.000000000000  0.000000000000  0.000000000000  1.000000000000
* f-type functions
    7    4
         95.84132462
         37.79294835
         14.90282976
          5.87660779
          2.31731287
          0.91378209
          0.36033015
  0.021215388261  0.000000000000  0.000000000000  0.000000000000
  0.093237610939  0.000000000000  0.000000000000  0.000000000000
  0.285697057819  0.000000000000  0.000000000000  0.000000000000
  0.422084057484  0.000000000000  0.000000000000  0.000000000000
  0.000000000000  1.000000000000  0.000000000000  0.000000000000
  0.000000000000  0.000000000000  1.000000000000  0.000000000000
  0.000000000000  0.000000000000  0.000000000000  1.000000000000
* g-type functions
    3    3
         22.48950000
          7.05000000
    2210031.34796e-6
  1.000000000000  0.000000000000  0.000000000000
  0.000000000000  1.000000000000  0.000000000000
  0.000000000000  0.000000000000  1.000000000000
* h-type functions
    2    2
         16.53880000
    5526011.56069e-6
  1.000000000000  0.000000000000
  0.000000000000  1.000000000000

/Lu.SARC2-QZVP-DKH2.Aravena.23s16p12d7f3g2h.18s12p9d4f3g2h.
D. Aravena, F. Neese, D.A. Pantazis. J. Chem. Theory Comput. 12 (2016) 1148-1156. doi:10.1021/acs.jctc.5b01048
LUTETIUM (23s,16p,12d,7f,3g,2h) -> [18s,12p,9d,4f,3g,2h]
    71.0   5
* s-type functions
   23   18
    9214149.04400000
    3785675.23967000
    1555361.97123000
     639027.57325600
     262547.39857000
     107868.79843800
      44318.38875530
      18208.41253720
       7481.00949603
       3073.60693664
       1262.80545506
        518.82939172
        213.16342643
         87.57916782
         35.98230130
         14.78349291
          6.07386562
          2.49547544
          1.02527749
          0.42123994
          0.17306835
          0.07110592
          0.02921419
  0.002443454077  0.000000000000  0.000000000000  0.000000000000  0.000000000000  0.000000000000  0.000000000000  0.000000000000  0.000000000000  0.000000000000  0.000000000000
  0.000000000000  0.000000000000  0.000000000000  0.000000000000  0.000000000000  0.000000000000  0.000000000000
 -0.000478689856  0.000000000000  0.000000000000  0.000000000000  0.000000000000  0.000000000000  0.000000000000  0.000000000000  0.000000000000  0.000000000000  0.000000000000
  0.000000000000  0.000000000000  0.000000000000  0.000000000000  0.000000000000  0.000000000000  0.000000000000
  0.004780511848  0.000000000000  0.000000000000  0.000000000000  0.000000000000  0.000000000000  0.000000000000  0.000000000000  0.000000000000  0.000000000000  0.000000000000
  0.000000000000  0.000000000000  0.000000000000  0.000000000000  0.000000000000  0.000000000000  0.000000000000
  0.003717741531  0.000000000000  0.000000000000  0.000000000000  0.000000000000  0.000000000000  0.000000000000  0.000000000000  0.000000000000  0.000000000000  0.000000000000
  0.000000000000  0.000000000000  0.000000000000  0.000000000000  0.000000000000  0.000000000000  0.000000000000
  0.011350234020  0.000000000000  0.000000000000  0.000000000000  0.000000000000  0.000000000000  0.000000000000  0.000000000000  0.000000000000  0.000000000000  0.000000000000
  0.000000000000  0.000000000000  0.000000000000  0.000000000000  0.000000000000  0.000000000000  0.000000000000
  0.018011511504  0.000000000000  0.000000000000  0.000000000000  0.000000000000  0.000000000000  0.000000000000  0.000000000000  0.000000000000  0.000000000000  0.000000000000
  0.000000000000  0.000000000000  0.000000000000  0.000000000000  0.000000000000  0.000000000000  0.000000000000
  0.000000000000  1.000000000000  0.000000000000  0.000000000000  0.000000000000  0.000000000000  0.000000000000  0.000000000000  0.000000000000  0.000000000000  0.000000000000
  0.000000000000  0.000000000000  0.000000000000  0.000000000000  0.000000000000  0.000000000000  0.000000000000
  0.000000000000  0.000000000000  1.000000000000  0.000000000000  0.000000000000  0.000000000000  0.000000000000  0.000000000000  0.000000000000  0.000000000000  0.000000000000
  0.000000000000  0.000000000000  0.000000000000  0.000000000000  0.000000000000  0.000000000000  0.000000000000
  0.000000000000  0.000000000000  0.000000000000  1.000000000000  0.000000000000  0.000000000000  0.000000000000  0.000000000000  0.000000000000  0.000000000000  0.000000000000
  0.000000000000  0.000000000000  0.000000000000  0.000000000000  0.000000000000  0.000000000000  0.000000000000
  0.000000000000  0.000000000000  0.000000000000  0.000000000000  1.000000000000  0.000000000000  0.000000000000  0.000000000000  0.000000000000  0.000000000000  0.000000000000
  0.000000000000  0.000000000000  0.000000000000  0.000000000000  0.000000000000  0.000000000000  0.000000000000
  0.000000000000  0.000000000000  0.000000000000  0.000000000000  0.000000000000  1.000000000000  0.000000000000  0.000000000000  0.000000000000  0.000000000000  0.000000000000
  0.000000000000  0.000000000000  0.000000000000  0.000000000000  0.000000000000  0.000000000000  0.000000000000
  0.000000000000  0.000000000000  0.000000000000  0.000000000000  0.000000000000  0.000000000000  1.000000000000  0.000000000000  0.000000000000  0.000000000000  0.000000000000
  0.000000000000  0.000000000000  0.000000000000  0.000000000000  0.000000000000  0.000000000000  0.000000000000
  0.000000000000  0.000000000000  0.000000000000  0.000000000000  0.000000000000  0.000000000000  0.000000000000  1.000000000000  0.000000000000  0.000000000000  0.000000000000
  0.000000000000  0.000000000000  0.000000000000  0.000000000000  0.000000000000  0.000000000000  0.000000000000
  0.000000000000  0.000000000000  0.000000000000  0.000000000000  0.000000000000  0.000000000000  0.000000000000  0.000000000000  1.000000000000  0.000000000000  0.000000000000
  0.000000000000  0.000000000000  0.000000000000  0.000000000000  0.000000000000  0.000000000000  0.000000000000
  0.000000000000  0.000000000000  0.000000000000  0.000000000000  0.000000000000  0.000000000000  0.000000000000  0.000000000000  0.000000000000  1.000000000000  0.000000000000
  0.000000000000  0.000000000000  0.000000000000  0.000000000000  0.000000000000  0.000000000000  0.000000000000
  0.000000000000  0.000000000000  0.000000000000  0.000000000000  0.000000000000  0.000000000000  0.000000000000  0.000000000000  0.000000000000  0.000000000000  1.000000000000
  0.000000000000  0.000000000000  0.000000000000  0.000000000000  0.000000000000  0.000000000000  0.000000000000
  0.000000000000  0.000000000000  0.000000000000  0.000000000000  0.000000000000  0.000000000000  0.000000000000  0.000000000000  0.000000000000  0.000000000000  0.000000000000
  1.000000000000  0.000000000000  0.000000000000  0.000000000000  0.000000000000  0.000000000000  0.000000000000
  0.000000000000  0.000000000000  0.000000000000  0.000000000000  0.000000000000  0.000000000000  0.000000000000  0.000000000000  0.000000000000  0.000000000000  0.000000000000
  0.000000000000  1.000000000000  0.000000000000  0.000000000000  0.000000000000  0.000000000000  0.000000000000
  0.000000000000  0.000000000000  0.000000000000  0.000000000000  0.000000000000  0.000000000000  0.000000000000  0.000000000000  0.000000000000  0.000000000000  0.000000000000
  0.000000000000  0.000000000000  1.000000000000  0.000000000000  0.000000000000  0.000000000000  0.000000000000
  0.000000000000  0.000000000000  0.000000000000  0.000000000000  0.000000000000  0.000000000000  0.000000000000  0.000000000000  0.000000000000  0.000000000000  0.000000000000
  0.000000000000  0.000000000000  0.000000000000  1.000000000000  0.000000000000  0.000000000000  0.000000000000
  0.000000000000  0.000000000000  0.000000000000  0.000000000000  0.000000000000  0.000000000000  0.000000000000  0.000000000000  0.000000000000  0.000000000000  0.000000000000
  0.000000000000  0.000000000000  0.000000000000  0.000000000000  1.000000000000  0.000000000000  0.000000000000
  0.000000000000  0.000000000000  0.000000000000  0.000000000000  0.000000000000  0.000000000000  0.000000000000  0.000000000000  0.000000000000  0.000000000000  0.000000000000
  0.000000000000  0.000000000000  0.000000000000  0.000000000000  0.000000000000  1.000000000000  0.000000000000
  0.000000000000  0.000000000000  0.000000000000  0.000000000000  0.000000000000  0.000000000000  0.000000000000  0.000000000000  0.000000000000  0.000000000000  0.000000000000
  0.000000000000  0.000000000000  0.000000000000  0.000000000000  0.000000000000  0.000000000000  1.000000000000
* p-type functions
   16   12
      20638.81581000
       8263.13058847
       3308.29674293
       1324.53762192
        530.30306777
        212.31661452
         85.00487276
         34.03326871
         13.62584686
          5.45535912
          2.18415365
          0.87446620
          0.35010867
          0.14017246
          0.05612063
          0.02246893
  0.005047395441  0.000000000000  0.000000000000  0.000000000000  0.000000000000  0.000000000000  0.000000000000  0.000000000000  0.000000000000  0.000000000000  0.000000000000
  0.000000000000
  0.005765748305  0.000000000000  0.000000000000  0.000000000000  0.000000000000  0.000000000000  0.000000000000  0.000000000000  0.000000000000  0.000000000000  0.000000000000
  0.000000000000
  0.028632404025  0.000000000000  0.000000000000  0.000000000000  0.000000000000  0.000000000000  0.000000000000  0.000000000000  0.000000000000  0.000000000000  0.000000000000
  0.000000000000
  0.084208329813  0.000000000000  0.000000000000  0.000000000000  0.000000000000  0.000000000000  0.000000000000  0.000000000000  0.000000000000  0.000000000000  0.000000000000
  0.000000000000
  0.250442098401  0.000000000000  0.000000000000  0.000000000000  0.000000000000  0.000000000000  0.000000000000  0.000000000000  0.000000000000  0.000000000000  0.000000000000
  0.000000000000
  0.000000000000  1.000000000000  0.000000000000  0.000000000000  0.000000000000  0.000000000000  0.000000000000  0.000000000000  0.000000000000  0.000000000000  0.000000000000
  0.000000000000
  0.000000000000  0.000000000000  1.000000000000  0.000000000000  0.000000000000  0.000000000000  0.000000000000  0.000000000000  0.000000000000  0.000000000000  0.000000000000
  0.000000000000
  0.000000000000  0.000000000000  0.000000000000  1.000000000000  0.000000000000  0.000000000000  0.000000000000  0.000000000000  0.000000000000  0.000000000000  0.000000000000
  0.000000000000
  0.000000000000  0.000000000000  0.000000000000  0.000000000000  1.000000000000  0.000000000000  0.000000000000  0.000000000000  0.000000000000  0.000000000000  0.000000000000
  0.000000000000
  0.000000000000  0.000000000000  0.000000000000  0.000000000000  0.000000000000  1.000000000000  0.000000000000  0.000000000000  0.000000000000  0.000000000000  0.000000000000
  0.000000000000
  0.000000000000  0.000000000000  0.000000000000  0.000000000000  0.000000000000  0.000000000000  1.000000000000  0.000000000000  0.000000000000  0.000000000000  0.000000000000
  0.000000000000
  0.000000000000  0.000000000000  0.000000000000  0.000000000000  0.000000000000  0.000000000000  0.000000000000  1.000000000000  0.000000000000  0.000000000000  0.000000000000
  0.000000000000
  0.000000000000  0.000000000000  0.000000000000  0.000000000000  0.000000000000  0.000000000000  0.000000000000  0.000000000000  1.000000000000  0.000000000000  0.000000000000
  0.000000000000
  0.000000000000  0.000000000000  0.000000000000  0.000000000000  0.000000000000  0.000000000000  0.000000000000  0.000000000000  0.000000000000  1.000000000000  0.000000000000
  0.000000000000
  0.000000000000  0.000000000000  0.000000000000  0.000000000000  0.000000000000  0.000000000000  0.000000000000  0.000000000000  0.000000000000  0.000000000000  1.000000000000
  0.000000000000
  0.000000000000  0.000000000000  0.000000000000  0.000000000000  0.000000000000  0.000000000000  0.000000000000  0.000000000000  0.000000000000  0.000000000000  0.000000000000
  1.000000000000
* d-type functions
   12    9
        627.58296360
        258.55753059
        106.52296270
         43.88633182
         18.08070365
          7.44905831
          3.06893309
          1.26436791
          0.52090618
          0.21460783
          0.08841615
          0.03642652
  0.021367927284  0.000000000000  0.000000000000  0.000000000000  0.000000000000  0.000000000000  0.000000000000  0.000000000000  0.000000000000
  0.073160475039  0.000000000000  0.000000000000  0.000000000000  0.000000000000  0.000000000000  0.000000000000  0.000000000000  0.000000000000
  0.273426715441  0.000000000000  0.000000000000  0.000000000000  0.000000000000  0.000000000000  0.000000000000  0.000000000000  0.000000000000
  0.502963158858  0.000000000000  0.000000000000  0.000000000000  0.000000000000  0.000000000000  0.000000000000  0.000000000000  0.000000000000
  0.000000000000  1.000000000000  0.000000000000  0.000000000000  0.000000000000  0.000000000000  0.000000000000  0.000000000000  0.000000000000
  0.000000000000  0.000000000000  1.000000000000  0.000000000000  0.000000000000  0.000000000000  0.000000000000  0.000000000000  0.000000000000
  0.000000000000  0.000000000000  0.000000000000  1.000000000000  0.000000000000  0.000000000000  0.000000000000  0.000000000000  0.000000000000
  0.000000000000  0.000000000000  0.000000000000  0.000000000000  1.000000000000  0.000000000000  0.000000000000  0.000000000000  0.000000000000
  0.000000000000  0.000000000000  0.000000000000  0.000000000000  0.000000000000  1.000000000000  0.000000000000  0.000000000000  0.000000000000
  0.000000000000  0.000000000000  0.000000000000  0.000000000000  0.000000000000  0.000000000000  1.000000000000  0.000000000000  0.000000000000
  0.000000000000  0.000000000000  0.000000000000  0.000000000000  0.000000000000  0.000000000000  0.000000000000  1.000000000000  0.000000000000
  0.000000000000  0.000000000000  0.000000000000  0.000000000000  0.000000000000  0.000000000000  0.000000000000  0.000000000000  1.000000000000
* f-type functions
    7    4
         99.91544536
         39.27298393
         15.43672514
          6.06759301
          2.38494141
          0.93743030
          0.36846841
  0.021286713347  0.000000000000  0.000000000000  0.000000000000
  0.094716596003  0.000000000000  0.000000000000  0.000000000000
  0.289491602683  0.000000000000  0.000000000000  0.000000000000
  0.423718233952  0.000000000000  0.000000000000  0.000000000000
  0.000000000000  1.000000000000  0.000000000000  0.000000000000
  0.000000000000  0.000000000000  1.000000000000  0.000000000000
  0.000000000000  0.000000000000  0.000000000000  1.000000000000
* g-type functions
    3    3
         23.38270000
          7.33000000
    2297805.64263e-6
  1.000000000000  0.000000000000  0.000000000000
  0.000000000000  1.000000000000  0.000000000000
  0.000000000000  0.000000000000  1.000000000000
* h-type functions
    2    2
         17.21350000
    5751445.08671e-6
  1.000000000000  0.000000000000
  0.000000000000  1.000000000000
