************************************************************************
* This file is part of OpenMolcas.                                     *
*                                                                      *
* OpenMolcas is free software; you can redistribute it and/or modify   *
* it under the terms of the GNU Lesser General Public License, v. 2.1. *
* OpenMolcas is distributed in the hope that it will be useful, but it *
* is provided "as is" and without any express or implied warranties.   *
* For more details see the full text of the license in the file        *
* LICENSE or in <http://www.gnu.org/licenses/>.                        *
************************************************************************

#Hamiltonian NRH
#Nucleus UNK
#Contraction SEG
#AllElectron AE_

************************************************************************
* This file has been generated from Basis Set Exchange data:           *
*   https://www.basissetexchange.org                                   *
* Version: 1  (Data from Gaussian09)                                   *
************************************************************************

/H.STO-3G.Hehre.3s.1s.
W.J. Hehre, R.F. Stewart, J.A. Pople. J. Chem. Phys. 51 (1969) 2657-2664. doi:10.1063/1.1672392
HYDROGEN (3s) -> [1s]
     1.0   0
* s-type functions
    3    1
      34252.50914e-4
      62391.37298e-5
       1688.55404e-4
  0.154328967300
  0.535328142300
  0.444634542200

/He.STO-3G.Hehre.3s.1s.
W.J. Hehre, R. Ditchfield, R.F. Stewart, J.A. Pople. J. Chem. Phys. 52 (1970) 2769-2773. doi:10.1063/1.1673374
HELIUM (3s) -> [1s]
     2.0   0
* s-type functions
    3    1
      63624.21394e-4
      11589.22999e-4
      31364.97915e-5
  0.154328967300
  0.535328142300
  0.444634542200

/Li.STO-3G.Hehre.6s3p.2s1p.
W.J. Hehre, R. Ditchfield, R.F. Stewart, J.A. Pople. J. Chem. Phys. 52 (1970) 2769-2773. doi:10.1063/1.1673374
LITHIUM (6s,3p) -> [2s,1p]
     3.0   1
* s-type functions
    6    2
         16.11957475
      29362.00663e-4
       7946.50487e-4
      63628.97469e-5
      14786.00533e-5
       4808.86784e-5
  0.154328967300  0.000000000000
  0.535328142300  0.000000000000
  0.444634542200  0.000000000000
  0.000000000000 -0.099967229190
  0.000000000000  0.399512826100
  0.000000000000  0.700115468900
* p-type functions
    3    1
      63628.97469e-5
      14786.00533e-5
       4808.86784e-5
  0.155916275000
  0.607683718600
  0.391957393100

/Be.STO-3G.Hehre.6s3p.2s1p.
W.J. Hehre, R. Ditchfield, R.F. Stewart, J.A. Pople. J. Chem. Phys. 52 (1970) 2769-2773. doi:10.1063/1.1673374
BERYLLIUM (6s,3p) -> [2s,1p]
     4.0   1
* s-type functions
    6    2
         30.16787069
      54951.15306e-4
      14871.92653e-4
          1.31483311
      30553.89383e-5
       9937.07456e-5
  0.154328967300  0.000000000000
  0.535328142300  0.000000000000
  0.444634542200  0.000000000000
  0.000000000000 -0.099967229190
  0.000000000000  0.399512826100
  0.000000000000  0.700115468900
* p-type functions
    3    1
          1.31483311
      30553.89383e-5
       9937.07456e-5
  0.155916275000
  0.607683718600
  0.391957393100

/B.STO-3G.Hehre.6s3p.2s1p.
W.J. Hehre, R. Ditchfield, R.F. Stewart, J.A. Pople. J. Chem. Phys. 52 (1970) 2769-2773. doi:10.1063/1.1673374
BORON (6s,3p) -> [2s,1p]
     5.0   1
* s-type functions
    6    2
         48.79111318
      88873.62172e-4
          2.40526704
      22369.56142e-4
      51982.04999e-5
          0.16906176
  0.154328967300  0.000000000000
  0.535328142300  0.000000000000
  0.444634542200  0.000000000000
  0.000000000000 -0.099967229190
  0.000000000000  0.399512826100
  0.000000000000  0.700115468900
* p-type functions
    3    1
      22369.56142e-4
      51982.04999e-5
          0.16906176
  0.155916275000
  0.607683718600
  0.391957393100

/C.STO-3G.Hehre.6s3p.2s1p.
W.J. Hehre, R.F. Stewart, J.A. Pople. J. Chem. Phys. 51 (1969) 2657-2664. doi:10.1063/1.1672392
CARBON (6s,3p) -> [2s,1p]
     6.0   1
* s-type functions
    6    2
         71.61683735
         13.04509632
          3.53051216
      29412.49355e-4
      68348.30964e-5
      22228.99159e-5
  0.154328967300  0.000000000000
  0.535328142300  0.000000000000
  0.444634542200  0.000000000000
  0.000000000000 -0.099967229190
  0.000000000000  0.399512826100
  0.000000000000  0.700115468900
* p-type functions
    3    1
      29412.49355e-4
      68348.30964e-5
      22228.99159e-5
  0.155916275000
  0.607683718600
  0.391957393100

/N.STO-3G.Hehre.6s3p.2s1p.
W.J. Hehre, R.F. Stewart, J.A. Pople. J. Chem. Phys. 51 (1969) 2657-2664. doi:10.1063/1.1672392
NITROGEN (6s,3p) -> [2s,1p]
     7.0   1
* s-type functions
    6    2
         99.10616896
         18.05231239
      48856.60238e-4
      37804.55879e-4
      87849.66449e-5
      28571.43744e-5
  0.154328967300  0.000000000000
  0.535328142300  0.000000000000
  0.444634542200  0.000000000000
  0.000000000000 -0.099967229190
  0.000000000000  0.399512826100
  0.000000000000  0.700115468900
* p-type functions
    3    1
      37804.55879e-4
      87849.66449e-5
      28571.43744e-5
  0.155916275000
  0.607683718600
  0.391957393100

/O.STO-3G.Hehre.6s3p.2s1p.
W.J. Hehre, R.F. Stewart, J.A. Pople. J. Chem. Phys. 51 (1969) 2657-2664. doi:10.1063/1.1672392
OXYGEN (6s,3p) -> [2s,1p]
     8.0   1
* s-type functions
    6    2
        130.70932140
         23.80886605
      64436.08313e-4
      50331.51319e-4
      11695.96125e-4
          0.38038896
  0.154328967300  0.000000000000
  0.535328142300  0.000000000000
  0.444634542200  0.000000000000
  0.000000000000 -0.099967229190
  0.000000000000  0.399512826100
  0.000000000000  0.700115468900
* p-type functions
    3    1
      50331.51319e-4
      11695.96125e-4
          0.38038896
  0.155916275000
  0.607683718600
  0.391957393100

/F.STO-3G.Hehre.6s3p.2s1p.
W.J. Hehre, R.F. Stewart, J.A. Pople. J. Chem. Phys. 51 (1969) 2657-2664. doi:10.1063/1.1672392
FLUORINE (6s,3p) -> [2s,1p]
     9.0   1
* s-type functions
    6    2
        166.67913400
         30.36081233
      82168.20672e-4
      64648.03249e-4
      15022.81245e-4
      48858.84864e-5
  0.154328967300  0.000000000000
  0.535328142300  0.000000000000
  0.444634542200  0.000000000000
  0.000000000000 -0.099967229190
  0.000000000000  0.399512826100
  0.000000000000  0.700115468900
* p-type functions
    3    1
      64648.03249e-4
      15022.81245e-4
      48858.84864e-5
  0.155916275000
  0.607683718600
  0.391957393100

/Ne.STO-3G.Hehre.6s3p.2s1p.
W.J. Hehre, R. Ditchfield, R.F. Stewart, J.A. Pople. J. Chem. Phys. 52 (1970) 2769-2773. doi:10.1063/1.1673374
NEON (6s,3p) -> [2s,1p]
    10.0   1
* s-type functions
    6    2
        207.01560700
         37.70815124
         10.20529731
          8.24631512
      19162.66291e-4
      62322.92721e-5
  0.154328967300  0.000000000000
  0.535328142300  0.000000000000
  0.444634542200  0.000000000000
  0.000000000000 -0.099967229190
  0.000000000000  0.399512826100
  0.000000000000  0.700115468900
* p-type functions
    3    1
          8.24631512
      19162.66291e-4
      62322.92721e-5
  0.155916275000
  0.607683718600
  0.391957393100

/Na.STO-3G.Hehre.9s6p.3s2p.
W.J. Hehre, R. Ditchfield, R.F. Stewart, J.A. Pople. J. Chem. Phys. 52 (1970) 2769-2773. doi:10.1063/1.1673374
SODIUM (9s,6p) -> [3s,2p]
    11.0   1
* s-type functions
    9    3
        250.77243000
         45.67851117
         12.36238776
         12.04019274
      27978.81859e-4
       9099.58017e-4
      14787.40622e-4
      41256.48801e-5
      16147.50979e-5
  0.154328967300  0.000000000000  0.000000000000
  0.535328142300  0.000000000000  0.000000000000
  0.444634542200  0.000000000000  0.000000000000
  0.000000000000 -0.099967229190  0.000000000000
  0.000000000000  0.399512826100  0.000000000000
  0.000000000000  0.700115468900  0.000000000000
  0.000000000000  0.000000000000 -0.219620369000
  0.000000000000  0.000000000000  0.225595433600
  0.000000000000  0.000000000000  0.900398426000
* p-type functions
    6    2
         12.04019274
      27978.81859e-4
       9099.58017e-4
      14787.40622e-4
      41256.48801e-5
      16147.50979e-5
  0.155916275000  0.000000000000
  0.607683718600  0.000000000000
  0.391957393100  0.000000000000
  0.000000000000  0.010587604290
  0.000000000000  0.595167005300
  0.000000000000  0.462001012000

/Mg.STO-3G.Hehre.9s6p.3s2p.
W.J. Hehre, R. Ditchfield, R.F. Stewart, J.A. Pople. J. Chem. Phys. 52 (1970) 2769-2773. doi:10.1063/1.1673374
MAGNESIUM (9s,6p) -> [3s,2p]
    12.0   1
* s-type functions
    9    3
        299.23741370
         54.50646845
         14.75157752
         15.12182352
      35139.86579e-4
      11428.57498e-4
      13954.48293e-4
      38932.65318e-5
      15237.97659e-5
  0.154328967300  0.000000000000  0.000000000000
  0.535328142300  0.000000000000  0.000000000000
  0.444634542200  0.000000000000  0.000000000000
  0.000000000000 -0.099967229190  0.000000000000
  0.000000000000  0.399512826100  0.000000000000
  0.000000000000  0.700115468900  0.000000000000
  0.000000000000  0.000000000000 -0.219620369000
  0.000000000000  0.000000000000  0.225595433600
  0.000000000000  0.000000000000  0.900398426000
* p-type functions
    6    2
         15.12182352
      35139.86579e-4
      11428.57498e-4
      13954.48293e-4
      38932.65318e-5
      15237.97659e-5
  0.155916275000  0.000000000000
  0.607683718600  0.000000000000
  0.391957393100  0.000000000000
  0.000000000000  0.010587604290
  0.000000000000  0.595167005300
  0.000000000000  0.462001012000

/Al.STO-3G.Hehre.9s6p.3s2p.
W.J. Hehre, R. Ditchfield, R.F. Stewart, J.A. Pople. J. Chem. Phys. 52 (1970) 2769-2773. doi:10.1063/1.1673374
ALUMINIUM (9s,6p) -> [3s,2p]
    13.0   1
* s-type functions
    9    3
        351.42147670
         64.01186067
         17.32410761
         18.89939621
      43918.13233e-4
          1.42835397
      13954.48293e-4
      38932.65318e-5
      15237.97659e-5
  0.154328967300  0.000000000000  0.000000000000
  0.535328142300  0.000000000000  0.000000000000
  0.444634542200  0.000000000000  0.000000000000
  0.000000000000 -0.099967229190  0.000000000000
  0.000000000000  0.399512826100  0.000000000000
  0.000000000000  0.700115468900  0.000000000000
  0.000000000000  0.000000000000 -0.219620369000
  0.000000000000  0.000000000000  0.225595433600
  0.000000000000  0.000000000000  0.900398426000
* p-type functions
    6    2
         18.89939621
      43918.13233e-4
          1.42835397
      13954.48293e-4
      38932.65318e-5
      15237.97659e-5
  0.155916275000  0.000000000000
  0.607683718600  0.000000000000
  0.391957393100  0.000000000000
  0.000000000000  0.010587604290
  0.000000000000  0.595167005300
  0.000000000000  0.462001012000

/Si.STO-3G.Hehre.9s6p.3s2p.
W.J. Hehre, R. Ditchfield, R.F. Stewart, J.A. Pople. J. Chem. Phys. 52 (1970) 2769-2773. doi:10.1063/1.1673374
SILICON (9s,6p) -> [3s,2p]
    14.0   1
* s-type functions
    9    3
        407.79755140
         74.28083305
         20.10329229
         23.19365606
      53897.06871e-4
      17528.99952e-4
      14787.40622e-4
      41256.48801e-5
      16147.50979e-5
  0.154328967300  0.000000000000  0.000000000000
  0.535328142300  0.000000000000  0.000000000000
  0.444634542200  0.000000000000  0.000000000000
  0.000000000000 -0.099967229190  0.000000000000
  0.000000000000  0.399512826100  0.000000000000
  0.000000000000  0.700115468900  0.000000000000
  0.000000000000  0.000000000000 -0.219620369000
  0.000000000000  0.000000000000  0.225595433600
  0.000000000000  0.000000000000  0.900398426000
* p-type functions
    6    2
         23.19365606
      53897.06871e-4
      17528.99952e-4
      14787.40622e-4
      41256.48801e-5
      16147.50979e-5
  0.155916275000  0.000000000000
  0.607683718600  0.000000000000
  0.391957393100  0.000000000000
  0.000000000000  0.010587604290
  0.000000000000  0.595167005300
  0.000000000000  0.462001012000

/P.STO-3G.Hehre.9s6p.3s2p.
W.J. Hehre, R. Ditchfield, R.F. Stewart, J.A. Pople. J. Chem. Phys. 52 (1970) 2769-2773. doi:10.1063/1.1673374
PHOSPHORUS (9s,6p) -> [3s,2p]
    15.0   1
* s-type functions
    9    3
        468.36563780
         85.31338559
         23.08913156
         28.03263958
      65141.82577e-4
      21186.14352e-4
      17431.03231e-4
      48632.13771e-5
      19034.28909e-5
  0.154328967300  0.000000000000  0.000000000000
  0.535328142300  0.000000000000  0.000000000000
  0.444634542200  0.000000000000  0.000000000000
  0.000000000000 -0.099967229190  0.000000000000
  0.000000000000  0.399512826100  0.000000000000
  0.000000000000  0.700115468900  0.000000000000
  0.000000000000  0.000000000000 -0.219620369000
  0.000000000000  0.000000000000  0.225595433600
  0.000000000000  0.000000000000  0.900398426000
* p-type functions
    6    2
         28.03263958
      65141.82577e-4
      21186.14352e-4
      17431.03231e-4
      48632.13771e-5
      19034.28909e-5
  0.155916275000  0.000000000000
  0.607683718600  0.000000000000
  0.391957393100  0.000000000000
  0.000000000000  0.010587604290
  0.000000000000  0.595167005300
  0.000000000000  0.462001012000

/S.STO-3G.Hehre.9s6p.3s2p.
W.J. Hehre, R. Ditchfield, R.F. Stewart, J.A. Pople. J. Chem. Phys. 52 (1970) 2769-2773. doi:10.1063/1.1673374
SULFUR (9s,6p) -> [3s,2p]
    16.0   1
* s-type functions
    9    3
        533.12573590
         97.10951830
         26.28162542
         33.32975173
      77451.17521e-4
      25189.52599e-4
      20291.94274e-4
      56614.00518e-5
      22158.33792e-5
  0.154328967300  0.000000000000  0.000000000000
  0.535328142300  0.000000000000  0.000000000000
  0.444634542200  0.000000000000  0.000000000000
  0.000000000000 -0.099967229190  0.000000000000
  0.000000000000  0.399512826100  0.000000000000
  0.000000000000  0.700115468900  0.000000000000
  0.000000000000  0.000000000000 -0.219620369000
  0.000000000000  0.000000000000  0.225595433600
  0.000000000000  0.000000000000  0.900398426000
* p-type functions
    6    2
         33.32975173
      77451.17521e-4
      25189.52599e-4
      20291.94274e-4
      56614.00518e-5
      22158.33792e-5
  0.155916275000  0.000000000000
  0.607683718600  0.000000000000
  0.391957393100  0.000000000000
  0.000000000000  0.010587604290
  0.000000000000  0.595167005300
  0.000000000000  0.462001012000

/Cl.STO-3G.Hehre.9s6p.3s2p.
W.J. Hehre, R. Ditchfield, R.F. Stewart, J.A. Pople. J. Chem. Phys. 52 (1970) 2769-2773. doi:10.1063/1.1673374
CHLORINE (9s,6p) -> [3s,2p]
    17.0   1
* s-type functions
    9    3
        601.34561360
        109.53585420
         29.64467686
         38.96041889
      90535.63477e-4
      29444.99834e-4
      21293.86495e-4
      59409.34274e-5
       2325.24141e-4
  0.154328967300  0.000000000000  0.000000000000
  0.535328142300  0.000000000000  0.000000000000
  0.444634542200  0.000000000000  0.000000000000
  0.000000000000 -0.099967229190  0.000000000000
  0.000000000000  0.399512826100  0.000000000000
  0.000000000000  0.700115468900  0.000000000000
  0.000000000000  0.000000000000 -0.219620369000
  0.000000000000  0.000000000000  0.225595433600
  0.000000000000  0.000000000000  0.900398426000
* p-type functions
    6    2
         38.96041889
      90535.63477e-4
      29444.99834e-4
      21293.86495e-4
      59409.34274e-5
       2325.24141e-4
  0.155916275000  0.000000000000
  0.607683718600  0.000000000000
  0.391957393100  0.000000000000
  0.000000000000  0.010587604290
  0.000000000000  0.595167005300
  0.000000000000  0.462001012000

/Ar.STO-3G.Hehre.9s6p.3s2p.
W.J. Hehre, R. Ditchfield, R.F. Stewart, J.A. Pople. J. Chem. Phys. 52 (1970) 2769-2773. doi:10.1063/1.1673374
ARGON (9s,6p) -> [3s,2p]
    18.0   1
* s-type functions
    9    3
        674.44651840
        122.85127530
         33.24834945
         45.16424392
         10.49519900
      34133.64448e-4
      26213.66518e-4
       7313.54605e-4
      28624.72356e-5
  0.154328967300  0.000000000000  0.000000000000
  0.535328142300  0.000000000000  0.000000000000
  0.444634542200  0.000000000000  0.000000000000
  0.000000000000 -0.099967229190  0.000000000000
  0.000000000000  0.399512826100  0.000000000000
  0.000000000000  0.700115468900  0.000000000000
  0.000000000000  0.000000000000 -0.219620369000
  0.000000000000  0.000000000000  0.225595433600
  0.000000000000  0.000000000000  0.900398426000
* p-type functions
    6    2
         45.16424392
         10.49519900
      34133.64448e-4
      26213.66518e-4
       7313.54605e-4
      28624.72356e-5
  0.155916275000  0.000000000000
  0.607683718600  0.000000000000
  0.391957393100  0.000000000000
  0.000000000000  0.010587604290
  0.000000000000  0.595167005300
  0.000000000000  0.462001012000

/K.STO-3G.Pietro.12s9p.4s3p.
W.J. Pietro, B.A. Levi, W.J. Hehre, R.F. Stewart. Inorg. Chem. 19 (1980) 2225-2229. doi:10.1021/ic50210a005
POTASSIUM (12s,9p) -> [4s,3p]
    19.0   1
* s-type functions
   12    4
        771.51036810
        140.53157660
         38.03332899
         52.40203979
         12.17710710
      39603.73165e-4
      36515.83985e-4
      10187.82663e-4
      39874.46295e-5
      50398.22505e-5
      18600.11465e-5
      82140.06743e-6
  0.154328967300  0.000000000000  0.000000000000  0.000000000000
  0.535328142300  0.000000000000  0.000000000000  0.000000000000
  0.444634542200  0.000000000000  0.000000000000  0.000000000000
  0.000000000000 -0.099967229190  0.000000000000  0.000000000000
  0.000000000000  0.399512826100  0.000000000000  0.000000000000
  0.000000000000  0.700115468900  0.000000000000  0.000000000000
  0.000000000000  0.000000000000 -0.219620369000  0.000000000000
  0.000000000000  0.000000000000  0.225595433600  0.000000000000
  0.000000000000  0.000000000000  0.900398426000  0.000000000000
  0.000000000000  0.000000000000  0.000000000000 -0.308844121400
  0.000000000000  0.000000000000  0.000000000000  0.019606411650
  0.000000000000  0.000000000000  0.000000000000  1.131034442000
* p-type functions
    9    3
         52.40203979
         12.17710710
      39603.73165e-4
      36515.83985e-4
      10187.82663e-4
      39874.46295e-5
      50398.22505e-5
      18600.11465e-5
      82140.06743e-6
  0.155916275000  0.000000000000  0.000000000000
  0.607683718600  0.000000000000  0.000000000000
  0.391957393100  0.000000000000  0.000000000000
  0.000000000000  0.010587604290  0.000000000000
  0.000000000000  0.595167005300  0.000000000000
  0.000000000000  0.462001012000  0.000000000000
  0.000000000000  0.000000000000 -0.121546860000
  0.000000000000  0.000000000000  0.571522760400
  0.000000000000  0.000000000000  0.549894947100

/Ca.STO-3G.Pietro.12s9p.4s3p.
W.J. Pietro, B.A. Levi, W.J. Hehre, R.F. Stewart. Inorg. Chem. 19 (1980) 2225-2229. doi:10.1021/ic50210a005
CALCIUM (12s,9p) -> [4s,3p]
    20.0   1
* s-type functions
   12    4
        854.03249510
        155.56308510
         42.10144179
         59.56029944
         13.84053270
      45013.70797e-4
      43747.06256e-4
      12205.31941e-4
      47770.79296e-5
      45584.89757e-5
       1682.36941e-4
      74295.20696e-6
  0.154328967300  0.000000000000  0.000000000000  0.000000000000
  0.535328142300  0.000000000000  0.000000000000  0.000000000000
  0.444634542200  0.000000000000  0.000000000000  0.000000000000
  0.000000000000 -0.099967229190  0.000000000000  0.000000000000
  0.000000000000  0.399512826100  0.000000000000  0.000000000000
  0.000000000000  0.700115468900  0.000000000000  0.000000000000
  0.000000000000  0.000000000000 -0.219620369000  0.000000000000
  0.000000000000  0.000000000000  0.225595433600  0.000000000000
  0.000000000000  0.000000000000  0.900398426000  0.000000000000
  0.000000000000  0.000000000000  0.000000000000 -0.308844121400
  0.000000000000  0.000000000000  0.000000000000  0.019606411650
  0.000000000000  0.000000000000  0.000000000000  1.131034442000
* p-type functions
    9    3
         59.56029944
         13.84053270
      45013.70797e-4
      43747.06256e-4
      12205.31941e-4
      47770.79296e-5
      45584.89757e-5
       1682.36941e-4
      74295.20696e-6
  0.155916275000  0.000000000000  0.000000000000
  0.607683718600  0.000000000000  0.000000000000
  0.391957393100  0.000000000000  0.000000000000
  0.000000000000  0.010587604290  0.000000000000
  0.000000000000  0.595167005300  0.000000000000
  0.000000000000  0.462001012000  0.000000000000
  0.000000000000  0.000000000000 -0.121546860000
  0.000000000000  0.000000000000  0.571522760400
  0.000000000000  0.000000000000  0.549894947100

/Sc.STO-3G.Pietro.12s9p3d.4s3p1d.
W.J. Pietro, W.J. Hehre. J. Comput. Chem. 4 (1983) 241-251. doi:10.1002/jcc.540040215
SCANDIUM (12s,9p,3d) -> [4s,3p,1d]
    21.0   2
* s-type functions
   12    4
        941.66242500
        171.52498620
         46.42135516
         67.17668771
         15.61041754
      50769.92278e-4
      46981.59231e-4
      14330.88313e-4
      55293.00235e-5
      63093.28384e-5
      23285.38976e-5
      10283.07363e-5
  0.154328967300  0.000000000000  0.000000000000  0.000000000000
  0.535328142300  0.000000000000  0.000000000000  0.000000000000
  0.444634542200  0.000000000000  0.000000000000  0.000000000000
  0.000000000000 -0.099967229190  0.000000000000  0.000000000000
  0.000000000000  0.399512826100  0.000000000000  0.000000000000
  0.000000000000  0.700115468900  0.000000000000  0.000000000000
  0.000000000000  0.000000000000 -0.227763502300  0.000000000000
  0.000000000000  0.000000000000  0.217543604400  0.000000000000
  0.000000000000  0.000000000000  0.916676961100  0.000000000000
  0.000000000000  0.000000000000  0.000000000000 -0.308844121400
  0.000000000000  0.000000000000  0.000000000000  0.019606411650
  0.000000000000  0.000000000000  0.000000000000  1.131034442000
* p-type functions
    9    3
         67.17668771
         15.61041754
      50769.92278e-4
      46981.59231e-4
      14330.88313e-4
      55293.00235e-5
      63093.28384e-5
      23285.38976e-5
      10283.07363e-5
  0.155916275000  0.000000000000  0.000000000000
  0.607683718600  0.000000000000  0.000000000000
  0.391957393100  0.000000000000  0.000000000000
  0.000000000000  0.004951511155  0.000000000000
  0.000000000000  0.577766469100  0.000000000000
  0.000000000000  0.484646036600  0.000000000000
  0.000000000000  0.000000000000 -0.121546860000
  0.000000000000  0.000000000000  0.571522760400
  0.000000000000  0.000000000000  0.549894947100
* d-type functions
    3    1
      55170.00679e-5
      16828.61055e-5
       6493.00112e-5
  0.219767950800
  0.655547362700
  0.286573259000

/Ti.STO-3G.Pietro.12s9p3d.4s3p1d.
W.J. Pietro, W.J. Hehre. J. Comput. Chem. 4 (1983) 241-251. doi:10.1002/jcc.540040215
TITANIUM (12s,9p,3d) -> [4s,3p,1d]
    22.0   2
* s-type functions
   12    4
       1033.57124500
        188.26629260
         50.95220601
         75.25120460
         17.48676162
      56872.37606e-4
      53955.35474e-4
      16458.10296e-4
      63500.47773e-5
      71226.40246e-5
      26287.02203e-5
      11608.62609e-5
  0.154328967300  0.000000000000  0.000000000000  0.000000000000
  0.535328142300  0.000000000000  0.000000000000  0.000000000000
  0.444634542200  0.000000000000  0.000000000000  0.000000000000
  0.000000000000 -0.099967229190  0.000000000000  0.000000000000
  0.000000000000  0.399512826100  0.000000000000  0.000000000000
  0.000000000000  0.700115468900  0.000000000000  0.000000000000
  0.000000000000  0.000000000000 -0.227763502300  0.000000000000
  0.000000000000  0.000000000000  0.217543604400  0.000000000000
  0.000000000000  0.000000000000  0.916676961100  0.000000000000
  0.000000000000  0.000000000000  0.000000000000 -0.308844121400
  0.000000000000  0.000000000000  0.000000000000  0.019606411650
  0.000000000000  0.000000000000  0.000000000000  1.131034442000
* p-type functions
    9    3
         75.25120460
         17.48676162
      56872.37606e-4
      53955.35474e-4
      16458.10296e-4
      63500.47773e-5
      71226.40246e-5
      26287.02203e-5
      11608.62609e-5
  0.155916275000  0.000000000000  0.000000000000
  0.607683718600  0.000000000000  0.000000000000
  0.391957393100  0.000000000000  0.000000000000
  0.000000000000  0.004951511155  0.000000000000
  0.000000000000  0.577766469100  0.000000000000
  0.000000000000  0.484646036600  0.000000000000
  0.000000000000  0.000000000000 -0.121546860000
  0.000000000000  0.000000000000  0.571522760400
  0.000000000000  0.000000000000  0.549894947100
* d-type functions
    3    1
      16459.81194e-4
      50207.67279e-5
      19371.68103e-5
  0.219767950800
  0.655547362700
  0.286573259000

/V.STO-3G.Pietro.12s9p3d.4s3p1d.
W.J. Pietro, W.J. Hehre. J. Comput. Chem. 4 (1983) 241-251. doi:10.1002/jcc.540040215
VANADIUM (12s,9p,3d) -> [4s,3p,1d]
    23.0   2
* s-type functions
   12    4
       1130.76251700
        205.96980410
         55.74346711
         83.78385011
         19.46956493
      63321.06784e-4
      61411.51276e-4
      18732.46881e-4
      72275.68825e-5
      71226.40246e-5
      26287.02203e-5
      11608.62609e-5
  0.154328967300  0.000000000000  0.000000000000  0.000000000000
  0.535328142300  0.000000000000  0.000000000000  0.000000000000
  0.444634542200  0.000000000000  0.000000000000  0.000000000000
  0.000000000000 -0.099967229190  0.000000000000  0.000000000000
  0.000000000000  0.399512826100  0.000000000000  0.000000000000
  0.000000000000  0.700115468900  0.000000000000  0.000000000000
  0.000000000000  0.000000000000 -0.227763502300  0.000000000000
  0.000000000000  0.000000000000  0.217543604400  0.000000000000
  0.000000000000  0.000000000000  0.916676961100  0.000000000000
  0.000000000000  0.000000000000  0.000000000000 -0.308844121400
  0.000000000000  0.000000000000  0.000000000000  0.019606411650
  0.000000000000  0.000000000000  0.000000000000  1.131034442000
* p-type functions
    9    3
         83.78385011
         19.46956493
      63321.06784e-4
      61411.51276e-4
      18732.46881e-4
      72275.68825e-5
      71226.40246e-5
      26287.02203e-5
      11608.62609e-5
  0.155916275000  0.000000000000  0.000000000000
  0.607683718600  0.000000000000  0.000000000000
  0.391957393100  0.000000000000  0.000000000000
  0.000000000000  0.004951511155  0.000000000000
  0.000000000000  0.577766469100  0.000000000000
  0.000000000000  0.484646036600  0.000000000000
  0.000000000000  0.000000000000 -0.121546860000
  0.000000000000  0.000000000000  0.571522760400
  0.000000000000  0.000000000000  0.549894947100
* d-type functions
    3    1
      29648.17927e-4
      90436.39676e-5
      34893.17337e-5
  0.219767950800
  0.655547362700
  0.286573259000

/Cr.STO-3G.Pietro.12s9p3d.4s3p1d.
W.J. Pietro, W.J. Hehre. J. Comput. Chem. 4 (1983) 241-251. doi:10.1002/jcc.540040215
CHROMIUM (12s,9p,3d) -> [4s,3p,1d]
    24.0   2
* s-type functions
   12    4
       1232.32045000
        224.46870820
         60.74999251
         92.77462423
         21.55882749
          7.01159981
      68994.88096e-4
      21045.63782e-4
      81200.61343e-5
      75477.80537e-5
      27856.05708e-5
      12301.52851e-5
  0.154328967300  0.000000000000  0.000000000000  0.000000000000
  0.535328142300  0.000000000000  0.000000000000  0.000000000000
  0.444634542200  0.000000000000  0.000000000000  0.000000000000
  0.000000000000 -0.099967229190  0.000000000000  0.000000000000
  0.000000000000  0.399512826100  0.000000000000  0.000000000000
  0.000000000000  0.700115468900  0.000000000000  0.000000000000
  0.000000000000  0.000000000000 -0.227763502300  0.000000000000
  0.000000000000  0.000000000000  0.217543604400  0.000000000000
  0.000000000000  0.000000000000  0.916676961100  0.000000000000
  0.000000000000  0.000000000000  0.000000000000 -0.308844121400
  0.000000000000  0.000000000000  0.000000000000  0.019606411650
  0.000000000000  0.000000000000  0.000000000000  1.131034442000
* p-type functions
    9    3
         92.77462423
         21.55882749
          7.01159981
      68994.88096e-4
      21045.63782e-4
      81200.61343e-5
      75477.80537e-5
      27856.05708e-5
      12301.52851e-5
  0.155916275000  0.000000000000  0.000000000000
  0.607683718600  0.000000000000  0.000000000000
  0.391957393100  0.000000000000  0.000000000000
  0.000000000000  0.004951511155  0.000000000000
  0.000000000000  0.577766469100  0.000000000000
  0.000000000000  0.484646036600  0.000000000000
  0.000000000000  0.000000000000 -0.121546860000
  0.000000000000  0.000000000000  0.571522760400
  0.000000000000  0.000000000000  0.549894947100
* d-type functions
    3    1
      42414.79241e-4
          1.29378636
      49918.29993e-5
  0.219767950800
  0.655547362700
  0.286573259000

/Mn.STO-3G.Pietro.12s9p3d.4s3p1d.
W.J. Pietro, W.J. Hehre. J. Comput. Chem. 4 (1983) 241-251. doi:10.1002/jcc.540040215
MANGANESE (12s,9p,3d) -> [4s,3p,1d]
    25.0   2
* s-type functions
   12    4
       1337.15326600
        243.56413650
         65.91796062
        102.02200210
         23.70771923
      77104.86098e-4
      77019.60922e-4
      23493.43572e-4
      90644.97869e-5
      67098.22861e-5
      24763.46626e-5
      10935.80779e-5
  0.154328967300  0.000000000000  0.000000000000  0.000000000000
  0.535328142300  0.000000000000  0.000000000000  0.000000000000
  0.444634542200  0.000000000000  0.000000000000  0.000000000000
  0.000000000000 -0.099967229190  0.000000000000  0.000000000000
  0.000000000000  0.399512826100  0.000000000000  0.000000000000
  0.000000000000  0.700115468900  0.000000000000  0.000000000000
  0.000000000000  0.000000000000 -0.227763502300  0.000000000000
  0.000000000000  0.000000000000  0.217543604400  0.000000000000
  0.000000000000  0.000000000000  0.916676961100  0.000000000000
  0.000000000000  0.000000000000  0.000000000000 -0.308844121400
  0.000000000000  0.000000000000  0.000000000000  0.019606411650
  0.000000000000  0.000000000000  0.000000000000  1.131034442000
* p-type functions
    9    3
        102.02200210
         23.70771923
      77104.86098e-4
      77019.60922e-4
      23493.43572e-4
      90644.97869e-5
      67098.22861e-5
      24763.46626e-5
      10935.80779e-5
  0.155916275000  0.000000000000  0.000000000000
  0.607683718600  0.000000000000  0.000000000000
  0.391957393100  0.000000000000  0.000000000000
  0.000000000000  0.004951511155  0.000000000000
  0.000000000000  0.577766469100  0.000000000000
  0.000000000000  0.484646036600  0.000000000000
  0.000000000000  0.000000000000 -0.121546860000
  0.000000000000  0.000000000000  0.571522760400
  0.000000000000  0.000000000000  0.549894947100
* d-type functions
    3    1
      54269.50461e-4
      16553.92868e-4
      63870.20316e-5
  0.219767950800
  0.655547362700
  0.286573259000

/Fe.STO-3G.Pietro.12s9p3d.4s3p1d.
W.J. Pietro, W.J. Hehre. J. Comput. Chem. 4 (1983) 241-251. doi:10.1002/jcc.540040215
IRON (12s,9p,3d) -> [4s,3p,1d]
    26.0   2
* s-type functions
   12    4
       1447.40041100
        263.64579160
         71.35284019
        111.91948910
         26.00768236
          8.45850549
      85485.69754e-4
          2.60758625
          1.00608784
      59211.56814e-5
      21852.79254e-5
       9650.42359e-5
  0.154328967300  0.000000000000  0.000000000000  0.000000000000
  0.535328142300  0.000000000000  0.000000000000  0.000000000000
  0.444634542200  0.000000000000  0.000000000000  0.000000000000
  0.000000000000 -0.099967229190  0.000000000000  0.000000000000
  0.000000000000  0.399512826100  0.000000000000  0.000000000000
  0.000000000000  0.700115468900  0.000000000000  0.000000000000
  0.000000000000  0.000000000000 -0.227763502300  0.000000000000
  0.000000000000  0.000000000000  0.217543604400  0.000000000000
  0.000000000000  0.000000000000  0.916676961100  0.000000000000
  0.000000000000  0.000000000000  0.000000000000 -0.308844121400
  0.000000000000  0.000000000000  0.000000000000  0.019606411650
  0.000000000000  0.000000000000  0.000000000000  1.131034442000
* p-type functions
    9    3
        111.91948910
         26.00768236
          8.45850549
      85485.69754e-4
          2.60758625
          1.00608784
      59211.56814e-5
      21852.79254e-5
       9650.42359e-5
  0.155916275000  0.000000000000  0.000000000000
  0.607683718600  0.000000000000  0.000000000000
  0.391957393100  0.000000000000  0.000000000000
  0.000000000000  0.004951511155  0.000000000000
  0.000000000000  0.577766469100  0.000000000000
  0.000000000000  0.484646036600  0.000000000000
  0.000000000000  0.000000000000 -0.121546860000
  0.000000000000  0.000000000000  0.571522760400
  0.000000000000  0.000000000000  0.549894947100
* d-type functions
    3    1
      64118.03475e-4
      19558.04428e-4
      75461.01508e-5
  0.219767950800
  0.655547362700
  0.286573259000

/Co.STO-3G.Pietro.12s9p3d.4s3p1d.
W.J. Pietro, W.J. Hehre. J. Comput. Chem. 4 (1983) 241-251. doi:10.1002/jcc.540040215
COBALT (12s,9p,3d) -> [4s,3p,1d]
    27.0   2
* s-type functions
   12    4
       1560.83467000
        284.30798350
         76.94483567
        122.27510470
         28.41410473
      92411.48731e-4
          9.43931459
      28792.91816e-4
      11109.20295e-4
      59211.56814e-5
      21852.79254e-5
       9650.42359e-5
  0.154328967300  0.000000000000  0.000000000000  0.000000000000
  0.535328142300  0.000000000000  0.000000000000  0.000000000000
  0.444634542200  0.000000000000  0.000000000000  0.000000000000
  0.000000000000 -0.099967229190  0.000000000000  0.000000000000
  0.000000000000  0.399512826100  0.000000000000  0.000000000000
  0.000000000000  0.700115468900  0.000000000000  0.000000000000
  0.000000000000  0.000000000000 -0.227763502300  0.000000000000
  0.000000000000  0.000000000000  0.217543604400  0.000000000000
  0.000000000000  0.000000000000  0.916676961100  0.000000000000
  0.000000000000  0.000000000000  0.000000000000 -0.308844121400
  0.000000000000  0.000000000000  0.000000000000  0.019606411650
  0.000000000000  0.000000000000  0.000000000000  1.131034442000
* p-type functions
    9    3
        122.27510470
         28.41410473
      92411.48731e-4
          9.43931459
      28792.91816e-4
      11109.20295e-4
      59211.56814e-5
      21852.79254e-5
       9650.42359e-5
  0.155916275000  0.000000000000  0.000000000000
  0.607683718600  0.000000000000  0.000000000000
  0.391957393100  0.000000000000  0.000000000000
  0.000000000000  0.004951511155  0.000000000000
  0.000000000000  0.577766469100  0.000000000000
  0.000000000000  0.484646036600  0.000000000000
  0.000000000000  0.000000000000 -0.121546860000
  0.000000000000  0.000000000000  0.571522760400
  0.000000000000  0.000000000000  0.549894947100
* d-type functions
    3    1
      76645.27389e-4
      23379.25151e-4
      90204.42052e-5
  0.219767950800
  0.655547362700
  0.286573259000

/Ni.STO-3G.Pietro.12s9p3d.4s3p1d.
W.J. Pietro, W.J. Hehre. J. Comput. Chem. 4 (1983) 241-251. doi:10.1002/jcc.540040215
NICKEL (12s,9p,3d) -> [4s,3p,1d]
    28.0   2
* s-type functions
   12    4
       1679.77102800
        305.97238960
         82.80806943
        132.85888990
         30.87354878
         10.04103627
         10.33074335
      31512.06003e-4
      12158.33241e-4
      63093.28384e-5
      23285.38976e-5
      10283.07363e-5
  0.154328967300  0.000000000000  0.000000000000  0.000000000000
  0.535328142300  0.000000000000  0.000000000000  0.000000000000
  0.444634542200  0.000000000000  0.000000000000  0.000000000000
  0.000000000000 -0.099967229190  0.000000000000  0.000000000000
  0.000000000000  0.399512826100  0.000000000000  0.000000000000
  0.000000000000  0.700115468900  0.000000000000  0.000000000000
  0.000000000000  0.000000000000 -0.227763502300  0.000000000000
  0.000000000000  0.000000000000  0.217543604400  0.000000000000
  0.000000000000  0.000000000000  0.916676961100  0.000000000000
  0.000000000000  0.000000000000  0.000000000000 -0.308844121400
  0.000000000000  0.000000000000  0.000000000000  0.019606411650
  0.000000000000  0.000000000000  0.000000000000  1.131034442000
* p-type functions
    9    3
        132.85888990
         30.87354878
         10.04103627
         10.33074335
      31512.06003e-4
      12158.33241e-4
      63093.28384e-5
      23285.38976e-5
      10283.07363e-5
  0.155916275000  0.000000000000  0.000000000000
  0.607683718600  0.000000000000  0.000000000000
  0.391957393100  0.000000000000  0.000000000000
  0.000000000000  0.004951511155  0.000000000000
  0.000000000000  0.577766469100  0.000000000000
  0.000000000000  0.484646036600  0.000000000000
  0.000000000000  0.000000000000 -0.121546860000
  0.000000000000  0.000000000000  0.571522760400
  0.000000000000  0.000000000000  0.549894947100
* d-type functions
    3    1
      86277.22755e-4
      26317.30438e-4
      10154.03419e-4
  0.219767950800
  0.655547362700
  0.286573259000

/Cu.STO-3G.Pietro.12s9p3d.4s3p1d.
W.J. Pietro, W.J. Hehre. J. Comput. Chem. 4 (1983) 241-251. doi:10.1002/jcc.540040215
COPPER (12s,9p,3d) -> [4s,3p,1d]
    29.0   2
* s-type functions
   12    4
       1801.80673000
        328.20134500
         88.82409228
        144.12121840
         33.49067173
         10.89220588
         11.30775402
      34492.25397e-4
      13308.18388e-4
      63093.28384e-5
      23285.38976e-5
      10283.07363e-5
  0.154328967300  0.000000000000  0.000000000000  0.000000000000
  0.535328142300  0.000000000000  0.000000000000  0.000000000000
  0.444634542200  0.000000000000  0.000000000000  0.000000000000
  0.000000000000 -0.099967229190  0.000000000000  0.000000000000
  0.000000000000  0.399512826100  0.000000000000  0.000000000000
  0.000000000000  0.700115468900  0.000000000000  0.000000000000
  0.000000000000  0.000000000000 -0.227763502300  0.000000000000
  0.000000000000  0.000000000000  0.217543604400  0.000000000000
  0.000000000000  0.000000000000  0.916676961100  0.000000000000
  0.000000000000  0.000000000000  0.000000000000 -0.308844121400
  0.000000000000  0.000000000000  0.000000000000  0.019606411650
  0.000000000000  0.000000000000  0.000000000000  1.131034442000
* p-type functions
    9    3
        144.12121840
         33.49067173
         10.89220588
         11.30775402
      34492.25397e-4
      13308.18388e-4
      63093.28384e-5
      23285.38976e-5
      10283.07363e-5
  0.155916275000  0.000000000000  0.000000000000
  0.607683718600  0.000000000000  0.000000000000
  0.391957393100  0.000000000000  0.000000000000
  0.000000000000  0.004951511155  0.000000000000
  0.000000000000  0.577766469100  0.000000000000
  0.000000000000  0.484646036600  0.000000000000
  0.000000000000  0.000000000000 -0.121546860000
  0.000000000000  0.000000000000  0.571522760400
  0.000000000000  0.000000000000  0.549894947100
* d-type functions
    3    1
          9.64791193
      29429.20654e-4
      11354.70278e-4
  0.219767950800
  0.655547362700
  0.286573259000

/Zn.STO-3G.Pietro.12s9p3d.4s3p1d.
W.J. Pietro, W.J. Hehre. J. Comput. Chem. 4 (1983) 241-251. doi:10.1002/jcc.540040215
ZINC (12s,9p,3d) -> [4s,3p,1d]
    30.0   2
* s-type functions
   12    4
       1929.43230100
        351.44850210
         95.11568021
        155.84167550
         36.21425391
         11.77799934
         12.28152744
      37462.57327e-4
      14454.22541e-4
      88971.38854e-5
       3283.60379e-4
      14500.74055e-5
  0.154328967300  0.000000000000  0.000000000000  0.000000000000
  0.535328142300  0.000000000000  0.000000000000  0.000000000000
  0.444634542200  0.000000000000  0.000000000000  0.000000000000
  0.000000000000 -0.099967229190  0.000000000000  0.000000000000
  0.000000000000  0.399512826100  0.000000000000  0.000000000000
  0.000000000000  0.700115468900  0.000000000000  0.000000000000
  0.000000000000  0.000000000000 -0.227763502300  0.000000000000
  0.000000000000  0.000000000000  0.217543604400  0.000000000000
  0.000000000000  0.000000000000  0.916676961100  0.000000000000
  0.000000000000  0.000000000000  0.000000000000 -0.308844121400
  0.000000000000  0.000000000000  0.000000000000  0.019606411650
  0.000000000000  0.000000000000  0.000000000000  1.131034442000
* p-type functions
    9    3
        155.84167550
         36.21425391
         11.77799934
         12.28152744
      37462.57327e-4
      14454.22541e-4
      88971.38854e-5
       3283.60379e-4
      14500.74055e-5
  0.155916275000  0.000000000000  0.000000000000
  0.607683718600  0.000000000000  0.000000000000
  0.391957393100  0.000000000000  0.000000000000
  0.000000000000  0.004951511155  0.000000000000
  0.000000000000  0.577766469100  0.000000000000
  0.000000000000  0.484646036600  0.000000000000
  0.000000000000  0.000000000000 -0.121546860000
  0.000000000000  0.000000000000  0.571522760400
  0.000000000000  0.000000000000  0.549894947100
* d-type functions
    3    1
         10.94737077
      33392.97018e-4
      12884.04602e-4
  0.219767950800
  0.655547362700
  0.286573259000

/Ga.STO-3G.Pietro.12s9p3d.4s3p1d.
W.J. Pietro, B.A. Levi, W.J. Hehre, R.F. Stewart. Inorg. Chem. 19 (1980) 2225-2229. doi:10.1021/ic50210a005
GALLIUM (12s,9p,3d) -> [4s,3p,1d]
    31.0   2
* s-type functions
   12    4
       2061.42453200
        375.49105170
        101.62253240
        167.76186800
         38.98425028
         12.67888813
      79852.43736e-5
      29470.57141e-5
      13014.51506e-5
         12.61505520
      38479.93927e-4
      14846.75684e-4
  0.154328967300  0.000000000000  0.000000000000  0.000000000000
  0.535328142300  0.000000000000  0.000000000000  0.000000000000
  0.444634542200  0.000000000000  0.000000000000  0.000000000000
  0.000000000000 -0.099967229190  0.000000000000  0.000000000000
  0.000000000000  0.399512826100  0.000000000000  0.000000000000
  0.000000000000  0.700115468900  0.000000000000  0.000000000000
  0.000000000000  0.000000000000 -0.308844121400  0.000000000000
  0.000000000000  0.000000000000  0.019606411650  0.000000000000
  0.000000000000  0.000000000000  1.131034442000  0.000000000000
  0.000000000000  0.000000000000  0.000000000000 -0.227763502300
  0.000000000000  0.000000000000  0.000000000000  0.217543604400
  0.000000000000  0.000000000000  0.000000000000  0.916676961100
* p-type functions
    9    3
        167.76186800
         38.98425028
         12.67888813
      79852.43736e-5
      29470.57141e-5
      13014.51506e-5
         12.61505520
      38479.93927e-4
      14846.75684e-4
  0.155916275000  0.000000000000  0.000000000000
  0.607683718600  0.000000000000  0.000000000000
  0.391957393100  0.000000000000  0.000000000000
  0.000000000000 -0.121546860000  0.000000000000
  0.000000000000  0.571522760400  0.000000000000
  0.000000000000  0.549894947100  0.000000000000
  0.000000000000  0.000000000000  0.004951511155
  0.000000000000  0.000000000000  0.577766469100
  0.000000000000  0.000000000000  0.484646036600
* d-type functions
    3    1
         12.61505520
      38479.93927e-4
      14846.75684e-4
  0.219767950800
  0.655547362700
  0.286573259000

/Ge.STO-3G.Pietro.12s9p3d.4s3p1d.
W.J. Pietro, B.A. Levi, W.J. Hehre, R.F. Stewart. Inorg. Chem. 19 (1980) 2225-2229. doi:10.1021/ic50210a005
GERMANIUM (12s,9p,3d) -> [4s,3p,1d]
    32.0   2
* s-type functions
   12    4
       2196.38422900
        400.07412920
        108.27567260
        180.38903800
         41.91853304
         13.63320795
          0.98583256
       3638.34215e-4
      16067.30254e-5
         14.19665619
          4.33043264
      16708.15538e-4
  0.154328967300  0.000000000000  0.000000000000  0.000000000000
  0.535328142300  0.000000000000  0.000000000000  0.000000000000
  0.444634542200  0.000000000000  0.000000000000  0.000000000000
  0.000000000000 -0.099967229190  0.000000000000  0.000000000000
  0.000000000000  0.399512826100  0.000000000000  0.000000000000
  0.000000000000  0.700115468900  0.000000000000  0.000000000000
  0.000000000000  0.000000000000 -0.308844121400  0.000000000000
  0.000000000000  0.000000000000  0.019606411650  0.000000000000
  0.000000000000  0.000000000000  1.131034442000  0.000000000000
  0.000000000000  0.000000000000  0.000000000000 -0.227763502300
  0.000000000000  0.000000000000  0.000000000000  0.217543604400
  0.000000000000  0.000000000000  0.000000000000  0.916676961100
* p-type functions
    9    3
        180.38903800
         41.91853304
         13.63320795
          0.98583256
       3638.34215e-4
      16067.30254e-5
         14.19665619
          4.33043264
      16708.15538e-4
  0.155916275000  0.000000000000  0.000000000000
  0.607683718600  0.000000000000  0.000000000000
  0.391957393100  0.000000000000  0.000000000000
  0.000000000000 -0.121546860000  0.000000000000
  0.000000000000  0.571522760400  0.000000000000
  0.000000000000  0.549894947100  0.000000000000
  0.000000000000  0.000000000000  0.004951511155
  0.000000000000  0.000000000000  0.577766469100
  0.000000000000  0.000000000000  0.484646036600
* d-type functions
    3    1
         14.19665619
          4.33043264
      16708.15538e-4
  0.219767950800
  0.655547362700
  0.286573259000

/As.STO-3G.Pietro.12s9p3d.4s3p1d.
W.J. Pietro, B.A. Levi, W.J. Hehre, R.F. Stewart. Inorg. Chem. 19 (1980) 2225-2229. doi:10.1021/ic50210a005
ARSENIC (12s,9p,3d) -> [4s,3p,1d]
    33.0   2
* s-type functions
   12    4
       2337.06567300
        425.69942980
        115.21087900
        193.19705350
         44.89484040
         14.60119548
      11076.81464e-4
      40880.41239e-5
      18053.22114e-5
         15.87163584
      48413.54819e-4
      18679.45198e-4
  0.154328967300  0.000000000000  0.000000000000  0.000000000000
  0.535328142300  0.000000000000  0.000000000000  0.000000000000
  0.444634542200  0.000000000000  0.000000000000  0.000000000000
  0.000000000000 -0.099967229190  0.000000000000  0.000000000000
  0.000000000000  0.399512826100  0.000000000000  0.000000000000
  0.000000000000  0.700115468900  0.000000000000  0.000000000000
  0.000000000000  0.000000000000 -0.308844121400  0.000000000000
  0.000000000000  0.000000000000  0.019606411650  0.000000000000
  0.000000000000  0.000000000000  1.131034442000  0.000000000000
  0.000000000000  0.000000000000  0.000000000000 -0.227763502300
  0.000000000000  0.000000000000  0.000000000000  0.217543604400
  0.000000000000  0.000000000000  0.000000000000  0.916676961100
* p-type functions
    9    3
        193.19705350
         44.89484040
         14.60119548
      11076.81464e-4
      40880.41239e-5
      18053.22114e-5
         15.87163584
      48413.54819e-4
      18679.45198e-4
  0.155916275000  0.000000000000  0.000000000000
  0.607683718600  0.000000000000  0.000000000000
  0.391957393100  0.000000000000  0.000000000000
  0.000000000000 -0.121546860000  0.000000000000
  0.000000000000  0.571522760400  0.000000000000
  0.000000000000  0.549894947100  0.000000000000
  0.000000000000  0.000000000000  0.004951511155
  0.000000000000  0.000000000000  0.577766469100
  0.000000000000  0.000000000000  0.484646036600
* d-type functions
    3    1
         15.87163584
      48413.54819e-4
      18679.45198e-4
  0.219767950800
  0.655547362700
  0.286573259000

/Se.STO-3G.Pietro.12s9p3d.4s3p1d.
W.J. Pietro, B.A. Levi, W.J. Hehre, R.F. Stewart. Inorg. Chem. 19 (1980) 2225-2229. doi:10.1021/ic50210a005
SELENIUM (12s,9p,3d) -> [4s,3p,1d]
    34.0   2
* s-type functions
   12    4
       2480.62681400
        451.84927080
        122.28804640
        206.15787800
         47.90665727
         15.58073180
      12146.44297e-4
      44828.01363e-5
      19796.52346e-5
         17.63999414
      53807.60465e-4
      20760.64666e-4
  0.154328967300  0.000000000000  0.000000000000  0.000000000000
  0.535328142300  0.000000000000  0.000000000000  0.000000000000
  0.444634542200  0.000000000000  0.000000000000  0.000000000000
  0.000000000000 -0.099967229190  0.000000000000  0.000000000000
  0.000000000000  0.399512826100  0.000000000000  0.000000000000
  0.000000000000  0.700115468900  0.000000000000  0.000000000000
  0.000000000000  0.000000000000 -0.308844121400  0.000000000000
  0.000000000000  0.000000000000  0.019606411650  0.000000000000
  0.000000000000  0.000000000000  1.131034442000  0.000000000000
  0.000000000000  0.000000000000  0.000000000000 -0.227763502300
  0.000000000000  0.000000000000  0.000000000000  0.217543604400
  0.000000000000  0.000000000000  0.000000000000  0.916676961100
* p-type functions
    9    3
        206.15787800
         47.90665727
         15.58073180
      12146.44297e-4
      44828.01363e-5
      19796.52346e-5
         17.63999414
      53807.60465e-4
      20760.64666e-4
  0.155916275000  0.000000000000  0.000000000000
  0.607683718600  0.000000000000  0.000000000000
  0.391957393100  0.000000000000  0.000000000000
  0.000000000000 -0.121546860000  0.000000000000
  0.000000000000  0.571522760400  0.000000000000
  0.000000000000  0.549894947100  0.000000000000
  0.000000000000  0.000000000000  0.004951511155
  0.000000000000  0.000000000000  0.577766469100
  0.000000000000  0.000000000000  0.484646036600
* d-type functions
    3    1
         17.63999414
      53807.60465e-4
      20760.64666e-4
  0.219767950800
  0.655547362700
  0.286573259000

/Br.STO-3G.Pietro.12s9p3d.4s3p1d.
W.J. Pietro, B.A. Levi, W.J. Hehre, R.F. Stewart. Inorg. Chem. 19 (1980) 2225-2229. doi:10.1021/ic50210a005
BROMINE (12s,9p,3d) -> [4s,3p,1d]
    35.0   2
* s-type functions
   12    4
       2629.99747100
        479.05732240
        129.65160700
        219.83502550
         51.08493222
         16.61440546
      13960.37488e-4
      51522.56318e-5
      22752.90713e-5
         19.50173109
      59486.49577e-4
          2.29517394
  0.154328967300  0.000000000000  0.000000000000  0.000000000000
  0.535328142300  0.000000000000  0.000000000000  0.000000000000
  0.444634542200  0.000000000000  0.000000000000  0.000000000000
  0.000000000000 -0.099967229190  0.000000000000  0.000000000000
  0.000000000000  0.399512826100  0.000000000000  0.000000000000
  0.000000000000  0.700115468900  0.000000000000  0.000000000000
  0.000000000000  0.000000000000 -0.308844121400  0.000000000000
  0.000000000000  0.000000000000  0.019606411650  0.000000000000
  0.000000000000  0.000000000000  1.131034442000  0.000000000000
  0.000000000000  0.000000000000  0.000000000000 -0.227763502300
  0.000000000000  0.000000000000  0.000000000000  0.217543604400
  0.000000000000  0.000000000000  0.000000000000  0.916676961100
* p-type functions
    9    3
        219.83502550
         51.08493222
         16.61440546
      13960.37488e-4
      51522.56318e-5
      22752.90713e-5
         19.50173109
      59486.49577e-4
          2.29517394
  0.155916275000  0.000000000000  0.000000000000
  0.607683718600  0.000000000000  0.000000000000
  0.391957393100  0.000000000000  0.000000000000
  0.000000000000 -0.121546860000  0.000000000000
  0.000000000000  0.571522760400  0.000000000000
  0.000000000000  0.549894947100  0.000000000000
  0.000000000000  0.000000000000  0.004951511155
  0.000000000000  0.000000000000  0.577766469100
  0.000000000000  0.000000000000  0.484646036600
* d-type functions
    3    1
         19.50173109
      59486.49577e-4
          2.29517394
  0.219767950800
  0.655547362700
  0.286573259000

/Kr.STO-3G.Pietro.12s9p3d.4s3p1d.
W.J. Pietro, B.A. Levi, W.J. Hehre, R.F. Stewart. Inorg. Chem. 19 (1980) 2225-2229. doi:10.1021/ic50210a005
KRYPTON (12s,9p,3d) -> [4s,3p,1d]
    36.0   2
* s-type functions
   12    4
       2782.16005500
        506.77392700
        137.15280190
        233.95141180
         54.36527681
         17.68127533
      15900.49336e-4
      58682.82053e-5
      25914.95227e-5
         21.45684671
      65450.22156e-4
      25252.73021e-4
  0.154328967300  0.000000000000  0.000000000000  0.000000000000
  0.535328142300  0.000000000000  0.000000000000  0.000000000000
  0.444634542200  0.000000000000  0.000000000000  0.000000000000
  0.000000000000 -0.099967229190  0.000000000000  0.000000000000
  0.000000000000  0.399512826100  0.000000000000  0.000000000000
  0.000000000000  0.700115468900  0.000000000000  0.000000000000
  0.000000000000  0.000000000000 -0.308844121400  0.000000000000
  0.000000000000  0.000000000000  0.019606411650  0.000000000000
  0.000000000000  0.000000000000  1.131034442000  0.000000000000
  0.000000000000  0.000000000000  0.000000000000 -0.227763502300
  0.000000000000  0.000000000000  0.000000000000  0.217543604400
  0.000000000000  0.000000000000  0.000000000000  0.916676961100
* p-type functions
    9    3
        233.95141180
         54.36527681
         17.68127533
      15900.49336e-4
      58682.82053e-5
      25914.95227e-5
         21.45684671
      65450.22156e-4
      25252.73021e-4
  0.155916275000  0.000000000000  0.000000000000
  0.607683718600  0.000000000000  0.000000000000
  0.391957393100  0.000000000000  0.000000000000
  0.000000000000 -0.121546860000  0.000000000000
  0.000000000000  0.571522760400  0.000000000000
  0.000000000000  0.549894947100  0.000000000000
  0.000000000000  0.000000000000  0.004951511155
  0.000000000000  0.000000000000  0.577766469100
  0.000000000000  0.000000000000  0.484646036600
* d-type functions
    3    1
         21.45684671
      65450.22156e-4
      25252.73021e-4
  0.219767950800
  0.655547362700
  0.286573259000

/Rb.STO-3G.Pietro.15s12p3d.5s4p1d.
W.J. Pietro, E.S. Blurock, R.F. Hout, W.J. Hehre, D.J. DeFrees, R.F. Stewart. Inorg. Chem. 20 (1981) 3650-3654. doi:10.1021/ic50225a013
RUBIDIUM (15s,12p,3d) -> [5s,4p,1d]
    37.0   2
* s-type functions
   15    5
       2938.60152900
        535.26993680
        144.86493420
        248.50703690
         57.74769105
         18.78134142
          2.24779682
      82957.83935e-5
      36635.05653e-5
      48699.39919e-5
      26221.61565e-5
      11582.54875e-5
         23.50534097
      71698.78201e-4
      27663.61909e-4
  0.154328967300  0.000000000000  0.000000000000  0.000000000000  0.000000000000
  0.535328142300  0.000000000000  0.000000000000  0.000000000000  0.000000000000
  0.444634542200  0.000000000000  0.000000000000  0.000000000000  0.000000000000
  0.000000000000 -0.099967229190  0.000000000000  0.000000000000  0.000000000000
  0.000000000000  0.399512826100  0.000000000000  0.000000000000  0.000000000000
  0.000000000000  0.700115468900  0.000000000000  0.000000000000  0.000000000000
  0.000000000000  0.000000000000 -0.308844121400  0.000000000000  0.000000000000
  0.000000000000  0.000000000000  0.019606411650  0.000000000000  0.000000000000
  0.000000000000  0.000000000000  1.131034442000  0.000000000000  0.000000000000
  0.000000000000  0.000000000000  0.000000000000 -0.384264260800  0.000000000000
  0.000000000000  0.000000000000  0.000000000000 -0.197256743800  0.000000000000
  0.000000000000  0.000000000000  0.000000000000  1.375495512000  0.000000000000
  0.000000000000  0.000000000000  0.000000000000  0.000000000000 -0.227763502300
  0.000000000000  0.000000000000  0.000000000000  0.000000000000  0.217543604400
  0.000000000000  0.000000000000  0.000000000000  0.000000000000  0.916676961100
* p-type functions
   12    4
        248.50703690
         57.74769105
         18.78134142
          2.24779682
      82957.83935e-5
      36635.05653e-5
      48699.39919e-5
      26221.61565e-5
      11582.54875e-5
         23.50534097
      71698.78201e-4
      27663.61909e-4
  0.155916275000  0.000000000000  0.000000000000  0.000000000000
  0.607683718600  0.000000000000  0.000000000000  0.000000000000
  0.391957393100  0.000000000000  0.000000000000  0.000000000000
  0.000000000000 -0.121546860000  0.000000000000  0.000000000000
  0.000000000000  0.571522760400  0.000000000000  0.000000000000
  0.000000000000  0.549894947100  0.000000000000  0.000000000000
  0.000000000000  0.000000000000 -0.348169152600  0.000000000000
  0.000000000000  0.000000000000  0.629032369000  0.000000000000
  0.000000000000  0.000000000000  0.666283274300  0.000000000000
  0.000000000000  0.000000000000  0.000000000000  0.004951511155
  0.000000000000  0.000000000000  0.000000000000  0.577766469100
  0.000000000000  0.000000000000  0.000000000000  0.484646036600
* d-type functions
    3    1
         23.50534097
      71698.78201e-4
      27663.61909e-4
  0.219767950800
  0.655547362700
  0.286573259000

/Sr.STO-3G.Pietro.15s12p3d.5s4p1d.
W.J. Pietro, E.S. Blurock, R.F. Hout, W.J. Hehre, D.J. DeFrees, R.F. Stewart. Inorg. Chem. 20 (1981) 3650-3654. doi:10.1021/ic50225a013
STRONTIUM (15s,12p,3d) -> [5s,4p,1d]
    38.0   2
* s-type functions
   15    5
       3100.98395100
        564.84809780
        152.86993890
        263.50190070
         61.23217493
         19.91460372
      24610.32403e-4
      90827.57342e-5
      40110.41407e-5
      43708.04803e-5
      23534.08164e-5
      10395.41771e-5
         25.57886692
      78023.69707e-4
      30103.96794e-4
  0.154328967300  0.000000000000  0.000000000000  0.000000000000  0.000000000000
  0.535328142300  0.000000000000  0.000000000000  0.000000000000  0.000000000000
  0.444634542200  0.000000000000  0.000000000000  0.000000000000  0.000000000000
  0.000000000000 -0.099967229190  0.000000000000  0.000000000000  0.000000000000
  0.000000000000  0.399512826100  0.000000000000  0.000000000000  0.000000000000
  0.000000000000  0.700115468900  0.000000000000  0.000000000000  0.000000000000
  0.000000000000  0.000000000000 -0.308844121400  0.000000000000  0.000000000000
  0.000000000000  0.000000000000  0.019606411650  0.000000000000  0.000000000000
  0.000000000000  0.000000000000  1.131034442000  0.000000000000  0.000000000000
  0.000000000000  0.000000000000  0.000000000000 -0.384264260800  0.000000000000
  0.000000000000  0.000000000000  0.000000000000 -0.197256743800  0.000000000000
  0.000000000000  0.000000000000  0.000000000000  1.375495512000  0.000000000000
  0.000000000000  0.000000000000  0.000000000000  0.000000000000 -0.227763502300
  0.000000000000  0.000000000000  0.000000000000  0.000000000000  0.217543604400
  0.000000000000  0.000000000000  0.000000000000  0.000000000000  0.916676961100
* p-type functions
   12    4
        263.50190070
         61.23217493
         19.91460372
      24610.32403e-4
      90827.57342e-5
      40110.41407e-5
      43708.04803e-5
      23534.08164e-5
      10395.41771e-5
         25.57886692
      78023.69707e-4
      30103.96794e-4
  0.155916275000  0.000000000000  0.000000000000  0.000000000000
  0.607683718600  0.000000000000  0.000000000000  0.000000000000
  0.391957393100  0.000000000000  0.000000000000  0.000000000000
  0.000000000000 -0.121546860000  0.000000000000  0.000000000000
  0.000000000000  0.571522760400  0.000000000000  0.000000000000
  0.000000000000  0.549894947100  0.000000000000  0.000000000000
  0.000000000000  0.000000000000 -0.348169152600  0.000000000000
  0.000000000000  0.000000000000  0.629032369000  0.000000000000
  0.000000000000  0.000000000000  0.666283274300  0.000000000000
  0.000000000000  0.000000000000  0.000000000000  0.004951511155
  0.000000000000  0.000000000000  0.000000000000  0.577766469100
  0.000000000000  0.000000000000  0.000000000000  0.484646036600
* d-type functions
    3    1
         25.57886692
      78023.69707e-4
      30103.96794e-4
  0.219767950800
  0.655547362700
  0.286573259000

/Y.STO-3G.Pietro.15s12p6d.5s4p2d.
W.J. Pietro, W.J. Hehre. J. Comput. Chem. 4 (1983) 241-251. doi:10.1002/jcc.540040215
YTTRIUM (15s,12p,6d) -> [5s,4p,2d]
    39.0   2
* s-type functions
   15    5
       3266.02686900
        594.91087120
        161.00609860
        277.93772440
         64.58674989
         21.00561561
      25272.74884e-4
      98410.77401e-5
      43320.66499e-5
      43708.04803e-5
      23534.08164e-5
      10395.41771e-5
         28.96238417
      88344.50311e-4
      34086.05577e-4
  0.154328967300  0.000000000000  0.000000000000  0.000000000000  0.000000000000
  0.535328142300  0.000000000000  0.000000000000  0.000000000000  0.000000000000
  0.444634542200  0.000000000000  0.000000000000  0.000000000000  0.000000000000
  0.000000000000 -0.099967229190  0.000000000000  0.000000000000  0.000000000000
  0.000000000000  0.399512826100  0.000000000000  0.000000000000  0.000000000000
  0.000000000000  0.700115468900  0.000000000000  0.000000000000  0.000000000000
  0.000000000000  0.000000000000 -0.330610062600  0.000000000000  0.000000000000
  0.000000000000  0.000000000000  0.057610953380  0.000000000000  0.000000000000
  0.000000000000  0.000000000000  1.115578745000  0.000000000000  0.000000000000
  0.000000000000  0.000000000000  0.000000000000 -0.384264260800  0.000000000000
  0.000000000000  0.000000000000  0.000000000000 -0.197256743800  0.000000000000
  0.000000000000  0.000000000000  0.000000000000  1.375495512000  0.000000000000
  0.000000000000  0.000000000000  0.000000000000  0.000000000000 -0.227763502300
  0.000000000000  0.000000000000  0.000000000000  0.000000000000  0.217543604400
  0.000000000000  0.000000000000  0.000000000000  0.000000000000  0.916676961100
* p-type functions
   12    4
        277.93772440
         64.58674989
         21.00561561
      25272.74884e-4
      98410.77401e-5
      43320.66499e-5
      43708.04803e-5
      23534.08164e-5
      10395.41771e-5
         28.96238417
      88344.50311e-4
      34086.05577e-4
  0.155916275000  0.000000000000  0.000000000000  0.000000000000
  0.607683718600  0.000000000000  0.000000000000  0.000000000000
  0.391957393100  0.000000000000  0.000000000000  0.000000000000
  0.000000000000 -0.128392763400  0.000000000000  0.000000000000
  0.000000000000  0.585204764100  0.000000000000  0.000000000000
  0.000000000000  0.543944204000  0.000000000000  0.000000000000
  0.000000000000  0.000000000000 -0.348169152600  0.000000000000
  0.000000000000  0.000000000000  0.629032369000  0.000000000000
  0.000000000000  0.000000000000  0.666283274300  0.000000000000
  0.000000000000  0.000000000000  0.000000000000  0.004951511155
  0.000000000000  0.000000000000  0.000000000000  0.577766469100
  0.000000000000  0.000000000000  0.000000000000  0.484646036600
* d-type functions
    6    2
         28.96238417
      88344.50311e-4
      34086.05577e-4
      45763.23918e-5
      17819.96813e-5
      78443.93842e-6
  0.219767950800  0.000000000000
  0.655547362700  0.000000000000
  0.286573259000  0.000000000000
  0.000000000000  0.125066213800
  0.000000000000  0.668678557700
  0.000000000000  0.305246824500

/Zr.STO-3G.Pietro.15s12p6d.5s4p2d.
W.J. Pietro, W.J. Hehre. J. Comput. Chem. 4 (1983) 241-251. doi:10.1002/jcc.540040215
ZIRCONIUM (15s,12p,6d) -> [5s,4p,2d]
    40.0   2
* s-type functions
   15    5
       3435.34867700
        625.75304980
        169.35319580
        293.78302920
         68.26885797
         22.20315144
      28276.07815e-4
      11010.55827e-4
      48468.74856e-5
      48699.39919e-5
      26221.61565e-5
      11582.54875e-5
         30.73293103
      93745.23538e-4
      36169.82618e-4
  0.154328967300  0.000000000000  0.000000000000  0.000000000000  0.000000000000
  0.535328142300  0.000000000000  0.000000000000  0.000000000000  0.000000000000
  0.444634542200  0.000000000000  0.000000000000  0.000000000000  0.000000000000
  0.000000000000 -0.099967229190  0.000000000000  0.000000000000  0.000000000000
  0.000000000000  0.399512826100  0.000000000000  0.000000000000  0.000000000000
  0.000000000000  0.700115468900  0.000000000000  0.000000000000  0.000000000000
  0.000000000000  0.000000000000 -0.330610062600  0.000000000000  0.000000000000
  0.000000000000  0.000000000000  0.057610953380  0.000000000000  0.000000000000
  0.000000000000  0.000000000000  1.115578745000  0.000000000000  0.000000000000
  0.000000000000  0.000000000000  0.000000000000 -0.384264260800  0.000000000000
  0.000000000000  0.000000000000  0.000000000000 -0.197256743800  0.000000000000
  0.000000000000  0.000000000000  0.000000000000  1.375495512000  0.000000000000
  0.000000000000  0.000000000000  0.000000000000  0.000000000000 -0.227763502300
  0.000000000000  0.000000000000  0.000000000000  0.000000000000  0.217543604400
  0.000000000000  0.000000000000  0.000000000000  0.000000000000  0.916676961100
* p-type functions
   12    4
        293.78302920
         68.26885797
         22.20315144
      28276.07815e-4
      11010.55827e-4
      48468.74856e-5
      48699.39919e-5
      26221.61565e-5
      11582.54875e-5
         30.73293103
      93745.23538e-4
      36169.82618e-4
  0.155916275000  0.000000000000  0.000000000000  0.000000000000
  0.607683718600  0.000000000000  0.000000000000  0.000000000000
  0.391957393100  0.000000000000  0.000000000000  0.000000000000
  0.000000000000 -0.128392763400  0.000000000000  0.000000000000
  0.000000000000  0.585204764100  0.000000000000  0.000000000000
  0.000000000000  0.543944204000  0.000000000000  0.000000000000
  0.000000000000  0.000000000000 -0.348169152600  0.000000000000
  0.000000000000  0.000000000000  0.629032369000  0.000000000000
  0.000000000000  0.000000000000  0.666283274300  0.000000000000
  0.000000000000  0.000000000000  0.000000000000  0.004951511155
  0.000000000000  0.000000000000  0.000000000000  0.577766469100
  0.000000000000  0.000000000000  0.000000000000  0.484646036600
* d-type functions
    6    2
         30.73293103
      93745.23538e-4
      36169.82618e-4
      88783.01887e-5
      34571.64736e-5
      15218.52428e-5
  0.219767950800  0.000000000000
  0.655547362700  0.000000000000
  0.286573259000  0.000000000000
  0.000000000000  0.125066213800
  0.000000000000  0.668678557700
  0.000000000000  0.305246824500

/Nb.STO-3G.Pietro.15s12p6d.5s4p2d.
W.J. Pietro, W.J. Hehre. J. Comput. Chem. 4 (1983) 241-251. doi:10.1002/jcc.540040215
NIOBIUM (15s,12p,6d) -> [5s,4p,2d]
    41.0   2
* s-type functions
   15    5
       3610.74286400
        657.70132010
        177.99964450
        310.06757280
         72.05303569
         23.43388348
          3.14479843
      12245.68208e-4
      53905.79399e-5
      48699.39919e-5
      26221.61565e-5
      11582.54875e-5
         33.01997858
         10.07214594
      38861.47028e-4
  0.154328967300  0.000000000000  0.000000000000  0.000000000000  0.000000000000
  0.535328142300  0.000000000000  0.000000000000  0.000000000000  0.000000000000
  0.444634542200  0.000000000000  0.000000000000  0.000000000000  0.000000000000
  0.000000000000 -0.099967229190  0.000000000000  0.000000000000  0.000000000000
  0.000000000000  0.399512826100  0.000000000000  0.000000000000  0.000000000000
  0.000000000000  0.700115468900  0.000000000000  0.000000000000  0.000000000000
  0.000000000000  0.000000000000 -0.330610062600  0.000000000000  0.000000000000
  0.000000000000  0.000000000000  0.057610953380  0.000000000000  0.000000000000
  0.000000000000  0.000000000000  1.115578745000  0.000000000000  0.000000000000
  0.000000000000  0.000000000000  0.000000000000 -0.384264260800  0.000000000000
  0.000000000000  0.000000000000  0.000000000000 -0.197256743800  0.000000000000
  0.000000000000  0.000000000000  0.000000000000  1.375495512000  0.000000000000
  0.000000000000  0.000000000000  0.000000000000  0.000000000000 -0.227763502300
  0.000000000000  0.000000000000  0.000000000000  0.000000000000  0.217543604400
  0.000000000000  0.000000000000  0.000000000000  0.000000000000  0.916676961100
* p-type functions
   12    4
        310.06757280
         72.05303569
         23.43388348
          3.14479843
      12245.68208e-4
      53905.79399e-5
      48699.39919e-5
      26221.61565e-5
      11582.54875e-5
         33.01997858
         10.07214594
      38861.47028e-4
  0.155916275000  0.000000000000  0.000000000000  0.000000000000
  0.607683718600  0.000000000000  0.000000000000  0.000000000000
  0.391957393100  0.000000000000  0.000000000000  0.000000000000
  0.000000000000 -0.128392763400  0.000000000000  0.000000000000
  0.000000000000  0.585204764100  0.000000000000  0.000000000000
  0.000000000000  0.543944204000  0.000000000000  0.000000000000
  0.000000000000  0.000000000000 -0.348169152600  0.000000000000
  0.000000000000  0.000000000000  0.629032369000  0.000000000000
  0.000000000000  0.000000000000  0.666283274300  0.000000000000
  0.000000000000  0.000000000000  0.000000000000  0.004951511155
  0.000000000000  0.000000000000  0.000000000000  0.577766469100
  0.000000000000  0.000000000000  0.000000000000  0.484646036600
* d-type functions
    6    2
         33.01997858
         10.07214594
      38861.47028e-4
      13448.78866e-4
      52368.88594e-5
      23052.91251e-5
  0.219767950800  0.000000000000
  0.655547362700  0.000000000000
  0.286573259000  0.000000000000
  0.000000000000  0.125066213800
  0.000000000000  0.668678557700
  0.000000000000  0.305246824500

/Mo.STO-3G.Pietro.15s12p6d.5s4p2d.
W.J. Pietro, W.J. Hehre. J. Comput. Chem. 4 (1983) 241-251. doi:10.1002/jcc.540040215
MOLYBDENUM (15s,12p,6d) -> [5s,4p,2d]
    42.0   2
* s-type functions
   15    5
       3788.66611500
        690.11026230
        186.77076910
        326.43095670
         75.85553420
         24.67057401
      34968.95188e-4
      13616.72861e-4
      59941.17456e-5
      51296.25081e-5
       2761.98597e-4
      12200.17773e-5
         35.46948129
         10.81932234
      41744.30912e-4
  0.154328967300  0.000000000000  0.000000000000  0.000000000000  0.000000000000
  0.535328142300  0.000000000000  0.000000000000  0.000000000000  0.000000000000
  0.444634542200  0.000000000000  0.000000000000  0.000000000000  0.000000000000
  0.000000000000 -0.099967229190  0.000000000000  0.000000000000  0.000000000000
  0.000000000000  0.399512826100  0.000000000000  0.000000000000  0.000000000000
  0.000000000000  0.700115468900  0.000000000000  0.000000000000  0.000000000000
  0.000000000000  0.000000000000 -0.330610062600  0.000000000000  0.000000000000
  0.000000000000  0.000000000000  0.057610953380  0.000000000000  0.000000000000
  0.000000000000  0.000000000000  1.115578745000  0.000000000000  0.000000000000
  0.000000000000  0.000000000000  0.000000000000 -0.384264260800  0.000000000000
  0.000000000000  0.000000000000  0.000000000000 -0.197256743800  0.000000000000
  0.000000000000  0.000000000000  0.000000000000  1.375495512000  0.000000000000
  0.000000000000  0.000000000000  0.000000000000  0.000000000000 -0.227763502300
  0.000000000000  0.000000000000  0.000000000000  0.000000000000  0.217543604400
  0.000000000000  0.000000000000  0.000000000000  0.000000000000  0.916676961100
* p-type functions
   12    4
        326.43095670
         75.85553420
         24.67057401
      34968.95188e-4
      13616.72861e-4
      59941.17456e-5
      51296.25081e-5
       2761.98597e-4
      12200.17773e-5
         35.46948129
         10.81932234
      41744.30912e-4
  0.155916275000  0.000000000000  0.000000000000  0.000000000000
  0.607683718600  0.000000000000  0.000000000000  0.000000000000
  0.391957393100  0.000000000000  0.000000000000  0.000000000000
  0.000000000000 -0.128392763400  0.000000000000  0.000000000000
  0.000000000000  0.585204764100  0.000000000000  0.000000000000
  0.000000000000  0.543944204000  0.000000000000  0.000000000000
  0.000000000000  0.000000000000 -0.348169152600  0.000000000000
  0.000000000000  0.000000000000  0.629032369000  0.000000000000
  0.000000000000  0.000000000000  0.666283274300  0.000000000000
  0.000000000000  0.000000000000  0.000000000000  0.004951511155
  0.000000000000  0.000000000000  0.000000000000  0.577766469100
  0.000000000000  0.000000000000  0.000000000000  0.484646036600
* d-type functions
    6    2
         35.46948129
         10.81932234
      41744.30912e-4
      17021.12315e-4
      66279.37127e-5
       2917.63424e-4
  0.219767950800  0.000000000000
  0.655547362700  0.000000000000
  0.286573259000  0.000000000000
  0.000000000000  0.125066213800
  0.000000000000  0.668678557700
  0.000000000000  0.305246824500

/Tc.STO-3G.Pietro.15s12p6d.5s4p2d.
W.J. Pietro, W.J. Hehre. J. Comput. Chem. 4 (1983) 241-251. doi:10.1002/jcc.540040215
TECHNETIUM (15s,12p,6d) -> [5s,4p,2d]
    43.0   2
* s-type functions
   15    5
       3970.86825700
        723.29860980
        195.75283110
        343.58463230
         79.84167952
         25.96699219
      38297.52708e-4
      14912.85854e-4
       6564.67704e-4
      46169.99826e-5
      24859.68963e-5
      10980.96207e-5
         38.08991983
         11.61863962
      44828.32367e-4
  0.154328967300  0.000000000000  0.000000000000  0.000000000000  0.000000000000
  0.535328142300  0.000000000000  0.000000000000  0.000000000000  0.000000000000
  0.444634542200  0.000000000000  0.000000000000  0.000000000000  0.000000000000
  0.000000000000 -0.099967229190  0.000000000000  0.000000000000  0.000000000000
  0.000000000000  0.399512826100  0.000000000000  0.000000000000  0.000000000000
  0.000000000000  0.700115468900  0.000000000000  0.000000000000  0.000000000000
  0.000000000000  0.000000000000 -0.330610062600  0.000000000000  0.000000000000
  0.000000000000  0.000000000000  0.057610953380  0.000000000000  0.000000000000
  0.000000000000  0.000000000000  1.115578745000  0.000000000000  0.000000000000
  0.000000000000  0.000000000000  0.000000000000 -0.384264260800  0.000000000000
  0.000000000000  0.000000000000  0.000000000000 -0.197256743800  0.000000000000
  0.000000000000  0.000000000000  0.000000000000  1.375495512000  0.000000000000
  0.000000000000  0.000000000000  0.000000000000  0.000000000000 -0.227763502300
  0.000000000000  0.000000000000  0.000000000000  0.000000000000  0.217543604400
  0.000000000000  0.000000000000  0.000000000000  0.000000000000  0.916676961100
* p-type functions
   12    4
        343.58463230
         79.84167952
         25.96699219
      38297.52708e-4
      14912.85854e-4
       6564.67704e-4
      46169.99826e-5
      24859.68963e-5
      10980.96207e-5
         38.08991983
         11.61863962
      44828.32367e-4
  0.155916275000  0.000000000000  0.000000000000  0.000000000000
  0.607683718600  0.000000000000  0.000000000000  0.000000000000
  0.391957393100  0.000000000000  0.000000000000  0.000000000000
  0.000000000000 -0.128392763400  0.000000000000  0.000000000000
  0.000000000000  0.585204764100  0.000000000000  0.000000000000
  0.000000000000  0.543944204000  0.000000000000  0.000000000000
  0.000000000000  0.000000000000 -0.348169152600  0.000000000000
  0.000000000000  0.000000000000  0.629032369000  0.000000000000
  0.000000000000  0.000000000000  0.666283274300  0.000000000000
  0.000000000000  0.000000000000  0.000000000000  0.004951511155
  0.000000000000  0.000000000000  0.000000000000  0.577766469100
  0.000000000000  0.000000000000  0.000000000000  0.484646036600
* d-type functions
    6    2
         38.08991983
         11.61863962
      44828.32367e-4
      21013.73228e-4
      81826.38428e-5
       3602.01758e-4
  0.219767950800  0.000000000000
  0.655547362700  0.000000000000
  0.286573259000  0.000000000000
  0.000000000000  0.125066213800
  0.000000000000  0.668678557700
  0.000000000000  0.305246824500

/Ru.STO-3G.Pietro.15s12p6d.5s4p2d.
W.J. Pietro, W.J. Hehre. J. Comput. Chem. 4 (1983) 241-251. doi:10.1002/jcc.540040215
RUTHENIUM (15s,12p,6d) -> [5s,4p,2d]
    44.0   2
* s-type functions
   15    5
       4159.27421000
        757.61698940
        205.04072390
        360.79865610
         83.84184843
         27.26797127
      41975.16371e-4
      16344.91118e-4
      71950.70139e-5
      41313.54848e-5
      22244.79167e-5
      98259.15662e-6
         40.71751678
         12.42014044
      47920.76302e-4
  0.154328967300  0.000000000000  0.000000000000  0.000000000000  0.000000000000
  0.535328142300  0.000000000000  0.000000000000  0.000000000000  0.000000000000
  0.444634542200  0.000000000000  0.000000000000  0.000000000000  0.000000000000
  0.000000000000 -0.099967229190  0.000000000000  0.000000000000  0.000000000000
  0.000000000000  0.399512826100  0.000000000000  0.000000000000  0.000000000000
  0.000000000000  0.700115468900  0.000000000000  0.000000000000  0.000000000000
  0.000000000000  0.000000000000 -0.330610062600  0.000000000000  0.000000000000
  0.000000000000  0.000000000000  0.057610953380  0.000000000000  0.000000000000
  0.000000000000  0.000000000000  1.115578745000  0.000000000000  0.000000000000
  0.000000000000  0.000000000000  0.000000000000 -0.384264260800  0.000000000000
  0.000000000000  0.000000000000  0.000000000000 -0.197256743800  0.000000000000
  0.000000000000  0.000000000000  0.000000000000  1.375495512000  0.000000000000
  0.000000000000  0.000000000000  0.000000000000  0.000000000000 -0.227763502300
  0.000000000000  0.000000000000  0.000000000000  0.000000000000  0.217543604400
  0.000000000000  0.000000000000  0.000000000000  0.000000000000  0.916676961100
* p-type functions
   12    4
        360.79865610
         83.84184843
         27.26797127
      41975.16371e-4
      16344.91118e-4
      71950.70139e-5
      41313.54848e-5
      22244.79167e-5
      98259.15662e-6
         40.71751678
         12.42014044
      47920.76302e-4
  0.155916275000  0.000000000000  0.000000000000  0.000000000000
  0.607683718600  0.000000000000  0.000000000000  0.000000000000
  0.391957393100  0.000000000000  0.000000000000  0.000000000000
  0.000000000000 -0.128392763400  0.000000000000  0.000000000000
  0.000000000000  0.585204764100  0.000000000000  0.000000000000
  0.000000000000  0.543944204000  0.000000000000  0.000000000000
  0.000000000000  0.000000000000 -0.348169152600  0.000000000000
  0.000000000000  0.000000000000  0.629032369000  0.000000000000
  0.000000000000  0.000000000000  0.666283274300  0.000000000000
  0.000000000000  0.000000000000  0.000000000000  0.004951511155
  0.000000000000  0.000000000000  0.000000000000  0.577766469100
  0.000000000000  0.000000000000  0.000000000000  0.484646036600
* d-type functions
    6    2
         40.71751678
         12.42014044
      47920.76302e-4
      23908.95761e-4
      93100.24167e-5
      40982.95558e-5
  0.219767950800  0.000000000000
  0.655547362700  0.000000000000
  0.286573259000  0.000000000000
  0.000000000000  0.125066213800
  0.000000000000  0.668678557700
  0.000000000000  0.305246824500

/Rh.STO-3G.Pietro.15s12p6d.5s4p2d.
W.J. Pietro, W.J. Hehre. J. Comput. Chem. 4 (1983) 241-251. doi:10.1002/jcc.540040215
RHODIUM (15s,12p,6d) -> [5s,4p,2d]
    45.0   2
* s-type functions
   15    5
       4350.07779400
        792.37210050
        214.44681330
        378.43342640
         87.93978981
         28.60074899
      45408.57408e-4
      17681.86338e-4
      77835.99789e-5
      41313.54848e-5
      22244.79167e-5
      98259.15662e-6
         43.52179455
         13.27553454
      51221.13939e-4
  0.154328967300  0.000000000000  0.000000000000  0.000000000000  0.000000000000
  0.535328142300  0.000000000000  0.000000000000  0.000000000000  0.000000000000
  0.444634542200  0.000000000000  0.000000000000  0.000000000000  0.000000000000
  0.000000000000 -0.099967229190  0.000000000000  0.000000000000  0.000000000000
  0.000000000000  0.399512826100  0.000000000000  0.000000000000  0.000000000000
  0.000000000000  0.700115468900  0.000000000000  0.000000000000  0.000000000000
  0.000000000000  0.000000000000 -0.330610062600  0.000000000000  0.000000000000
  0.000000000000  0.000000000000  0.057610953380  0.000000000000  0.000000000000
  0.000000000000  0.000000000000  1.115578745000  0.000000000000  0.000000000000
  0.000000000000  0.000000000000  0.000000000000 -0.384264260800  0.000000000000
  0.000000000000  0.000000000000  0.000000000000 -0.197256743800  0.000000000000
  0.000000000000  0.000000000000  0.000000000000  1.375495512000  0.000000000000
  0.000000000000  0.000000000000  0.000000000000  0.000000000000 -0.227763502300
  0.000000000000  0.000000000000  0.000000000000  0.000000000000  0.217543604400
  0.000000000000  0.000000000000  0.000000000000  0.000000000000  0.916676961100
* p-type functions
   12    4
        378.43342640
         87.93978981
         28.60074899
      45408.57408e-4
      17681.86338e-4
      77835.99789e-5
      41313.54848e-5
      22244.79167e-5
      98259.15662e-6
         43.52179455
[...]
  0.000000000000  0.543944204000  0.000000000000  0.000000000000
  0.000000000000  0.000000000000 -0.348169152600  0.000000000000
  0.000000000000  0.000000000000  0.629032369000  0.000000000000
  0.000000000000  0.000000000000  0.666283274300  0.000000000000
  0.000000000000  0.000000000000  0.000000000000  0.004951511155
  0.000000000000  0.000000000000  0.000000000000  0.577766469100
  0.000000000000  0.000000000000  0.000000000000  0.484646036600
* d-type functions
    6    2
         52.59279235
         16.04247800
      61896.86744e-4
      36429.63976e-4
          1.41855129
          0.62444977
  0.219767950800  0.000000000000
  0.655547362700  0.000000000000
  0.286573259000  0.000000000000
  0.000000000000  0.125066213800
  0.000000000000  0.668678557700
  0.000000000000  0.305246824500

/In.STO-3G.Pietro.15s12p6d.5s4p2d.
W.J. Pietro, E.S. Blurock, R.F. Hout, W.J. Hehre, D.J. DeFrees, R.F. Stewart. Inorg. Chem. 20 (1981) 3650-3654. doi:10.1021/ic50225a013
INDIUM (15s,12p,6d) -> [5s,4p,2d]
    49.0   2
* s-type functions
   15    5
       5158.22471400
        939.57707070
        254.28622310
        452.33132230
        105.11207160
         34.18570799
      56692.30612e-5
      30525.30187e-5
      13483.56264e-5
         55.97539769
         17.07428044
      65877.88204e-4
          5.04854918
      19658.78882e-4
      86538.47237e-5
  0.154328967300  0.000000000000  0.000000000000  0.000000000000  0.000000000000
  0.535328142300  0.000000000000  0.000000000000  0.000000000000  0.000000000000
  0.444634542200  0.000000000000  0.000000000000  0.000000000000  0.000000000000
  0.000000000000 -0.099967229190  0.000000000000  0.000000000000  0.000000000000
  0.000000000000  0.399512826100  0.000000000000  0.000000000000  0.000000000000
  0.000000000000  0.700115468900  0.000000000000  0.000000000000  0.000000000000
  0.000000000000  0.000000000000 -0.384264260800  0.000000000000  0.000000000000
  0.000000000000  0.000000000000 -0.197256743800  0.000000000000  0.000000000000
  0.000000000000  0.000000000000  1.375495512000  0.000000000000  0.000000000000
  0.000000000000  0.000000000000  0.000000000000 -0.227763502300  0.000000000000
  0.000000000000  0.000000000000  0.000000000000  0.217543604400  0.000000000000
  0.000000000000  0.000000000000  0.000000000000  0.916676961100  0.000000000000
  0.000000000000  0.000000000000  0.000000000000  0.000000000000 -0.330610062600
  0.000000000000  0.000000000000  0.000000000000  0.000000000000  0.057610953380
  0.000000000000  0.000000000000  0.000000000000  0.000000000000  1.115578745000
* p-type functions
   12    4
        452.33132230
        105.11207160
         34.18570799
      56692.30612e-5
      30525.30187e-5
      13483.56264e-5
         55.97539769
         17.07428044
      65877.88204e-4
          5.04854918
      19658.78882e-4
      86538.47237e-5
  0.155916275000  0.000000000000  0.000000000000  0.000000000000
  0.607683718600  0.000000000000  0.000000000000  0.000000000000
  0.391957393100  0.000000000000  0.000000000000  0.000000000000
  0.000000000000 -0.348169152600  0.000000000000  0.000000000000
  0.000000000000  0.629032369000  0.000000000000  0.000000000000
  0.000000000000  0.666283274300  0.000000000000  0.000000000000
  0.000000000000  0.000000000000  0.004951511155  0.000000000000
  0.000000000000  0.000000000000  0.577766469100  0.000000000000
  0.000000000000  0.000000000000  0.484646036600  0.000000000000
  0.000000000000  0.000000000000  0.000000000000 -0.128392763400
  0.000000000000  0.000000000000  0.000000000000  0.585204764100
  0.000000000000  0.000000000000  0.000000000000  0.543944204000
* d-type functions
    6    2
         55.97539769
         17.07428044
      65877.88204e-4
          5.04854918
      19658.78882e-4
      86538.47237e-5
  0.219767950800  0.000000000000
  0.655547362700  0.000000000000
  0.286573259000  0.000000000000
  0.000000000000  0.125066213800
  0.000000000000  0.668678557700
  0.000000000000  0.305246824500

/Sn.STO-3G.Pietro.15s12p6d.5s4p2d.
W.J. Pietro, E.S. Blurock, R.F. Hout, W.J. Hehre, D.J. DeFrees, R.F. Stewart. Inorg. Chem. 20 (1981) 3650-3654. doi:10.1021/ic50225a013
TIN (15s,12p,6d) -> [5s,4p,2d]
    50.0   2
* s-type functions
   15    5
       5370.46641300
        978.23716110
        264.74915220
        472.05153220
        109.69462430
         35.67609636
       6235.81642e-4
      33576.01616e-5
      14831.11678e-5
         59.15141188
         18.04306600
          6.96157579
      55831.38529e-4
      21740.45204e-4
      95702.00509e-5
  0.154328967300  0.000000000000  0.000000000000  0.000000000000  0.000000000000
  0.535328142300  0.000000000000  0.000000000000  0.000000000000  0.000000000000
  0.444634542200  0.000000000000  0.000000000000  0.000000000000  0.000000000000
  0.000000000000 -0.099967229190  0.000000000000  0.000000000000  0.000000000000
  0.000000000000  0.399512826100  0.000000000000  0.000000000000  0.000000000000
  0.000000000000  0.700115468900  0.000000000000  0.000000000000  0.000000000000
  0.000000000000  0.000000000000 -0.384264260800  0.000000000000  0.000000000000
  0.000000000000  0.000000000000 -0.197256743800  0.000000000000  0.000000000000
  0.000000000000  0.000000000000  1.375495512000  0.000000000000  0.000000000000
  0.000000000000  0.000000000000  0.000000000000 -0.227763502300  0.000000000000
  0.000000000000  0.000000000000  0.000000000000  0.217543604400  0.000000000000
  0.000000000000  0.000000000000  0.000000000000  0.916676961100  0.000000000000
  0.000000000000  0.000000000000  0.000000000000  0.000000000000 -0.330610062600
  0.000000000000  0.000000000000  0.000000000000  0.000000000000  0.057610953380
  0.000000000000  0.000000000000  0.000000000000  0.000000000000  1.115578745000
* p-type functions
   12    4
        472.05153220
        109.69462430
         35.67609636
       6235.81642e-4
      33576.01616e-5
      14831.11678e-5
         59.15141188
         18.04306600
          6.96157579
      55831.38529e-4
      21740.45204e-4
      95702.00509e-5
  0.155916275000  0.000000000000  0.000000000000  0.000000000000
  0.607683718600  0.000000000000  0.000000000000  0.000000000000
  0.391957393100  0.000000000000  0.000000000000  0.000000000000
  0.000000000000 -0.348169152600  0.000000000000  0.000000000000
  0.000000000000  0.629032369000  0.000000000000  0.000000000000
  0.000000000000  0.666283274300  0.000000000000  0.000000000000
  0.000000000000  0.000000000000  0.004951511155  0.000000000000
  0.000000000000  0.000000000000  0.577766469100  0.000000000000
  0.000000000000  0.000000000000  0.484646036600  0.000000000000
  0.000000000000  0.000000000000  0.000000000000 -0.128392763400
  0.000000000000  0.000000000000  0.000000000000  0.585204764100
  0.000000000000  0.000000000000  0.000000000000  0.543944204000
* d-type functions
    6    2
         59.15141188
         18.04306600
          6.96157579
      55831.38529e-4
      21740.45204e-4
      95702.00509e-5
  0.219767950800  0.000000000000
  0.655547362700  0.000000000000
  0.286573259000  0.000000000000
  0.000000000000  0.125066213800
  0.000000000000  0.668678557700
  0.000000000000  0.305246824500

/Sb.STO-3G.Pietro.15s12p6d.5s4p2d.
W.J. Pietro, E.S. Blurock, R.F. Hout, W.J. Hehre, D.J. DeFrees, R.F. Stewart. Inorg. Chem. 20 (1981) 3650-3654. doi:10.1021/ic50225a013
ANTIMONY (15s,12p,6d) -> [5s,4p,2d]
    51.0   2
* s-type functions
   15    5
       5586.98700200
       1017.67665700
        275.42301890
        492.19248880
        114.37494940
         37.19828336
      65292.26928e-5
      35155.85034e-5
      15528.95732e-5
         62.52179775
         19.07114112
      73582.39131e-4
      61206.93149e-4
      23833.66187e-4
      10491.63663e-4
  0.154328967300  0.000000000000  0.000000000000  0.000000000000  0.000000000000
  0.535328142300  0.000000000000  0.000000000000  0.000000000000  0.000000000000
  0.444634542200  0.000000000000  0.000000000000  0.000000000000  0.000000000000
  0.000000000000 -0.099967229190  0.000000000000  0.000000000000  0.000000000000
  0.000000000000  0.399512826100  0.000000000000  0.000000000000  0.000000000000
  0.000000000000  0.700115468900  0.000000000000  0.000000000000  0.000000000000
  0.000000000000  0.000000000000 -0.384264260800  0.000000000000  0.000000000000
  0.000000000000  0.000000000000 -0.197256743800  0.000000000000  0.000000000000
  0.000000000000  0.000000000000  1.375495512000  0.000000000000  0.000000000000
  0.000000000000  0.000000000000  0.000000000000 -0.227763502300  0.000000000000
  0.000000000000  0.000000000000  0.000000000000  0.217543604400  0.000000000000
  0.000000000000  0.000000000000  0.000000000000  0.916676961100  0.000000000000
  0.000000000000  0.000000000000  0.000000000000  0.000000000000 -0.330610062600
  0.000000000000  0.000000000000  0.000000000000  0.000000000000  0.057610953380
  0.000000000000  0.000000000000  0.000000000000  0.000000000000  1.115578745000
* p-type functions
   12    4
        492.19248880
        114.37494940
         37.19828336
      65292.26928e-5
      35155.85034e-5
      15528.95732e-5
         62.52179775
         19.07114112
      73582.39131e-4
      61206.93149e-4
      23833.66187e-4
      10491.63663e-4
  0.155916275000  0.000000000000  0.000000000000  0.000000000000
  0.607683718600  0.000000000000  0.000000000000  0.000000000000
  0.391957393100  0.000000000000  0.000000000000  0.000000000000
  0.000000000000 -0.348169152600  0.000000000000  0.000000000000
  0.000000000000  0.629032369000  0.000000000000  0.000000000000
  0.000000000000  0.666283274300  0.000000000000  0.000000000000
  0.000000000000  0.000000000000  0.004951511155  0.000000000000
  0.000000000000  0.000000000000  0.577766469100  0.000000000000
  0.000000000000  0.000000000000  0.484646036600  0.000000000000
  0.000000000000  0.000000000000  0.000000000000 -0.128392763400
  0.000000000000  0.000000000000  0.000000000000  0.585204764100
  0.000000000000  0.000000000000  0.000000000000  0.543944204000
* d-type functions
    6    2
         62.52179775
         19.07114112
      73582.39131e-4
      61206.93149e-4
      23833.66187e-4
      10491.63663e-4
  0.219767950800  0.000000000000
  0.655547362700  0.000000000000
  0.286573259000  0.000000000000
  0.000000000000  0.125066213800
  0.000000000000  0.668678557700
  0.000000000000  0.305246824500

/Te.STO-3G.Pietro.15s12p6d.5s4p2d.
W.J. Pietro, E.S. Blurock, R.F. Hout, W.J. Hehre, D.J. DeFrees, R.F. Stewart. Inorg. Chem. 20 (1981) 3650-3654. doi:10.1021/ic50225a013
TELLURIUM (15s,12p,6d) -> [5s,4p,2d]
    52.0   2
* s-type functions
   15    5
       5810.06159100
       1058.30997200
        286.41997970
        512.75419200
        119.15304710
         38.75226900
      70127.13483e-5
      37759.12653e-5
       1667.88702e-4
         65.98556227
         20.12769970
      77658.92279e-4
      67079.56921e-4
      26120.43655e-4
      11498.28048e-4
  0.154328967300  0.000000000000  0.000000000000  0.000000000000  0.000000000000
  0.535328142300  0.000000000000  0.000000000000  0.000000000000  0.000000000000
  0.444634542200  0.000000000000  0.000000000000  0.000000000000  0.000000000000
  0.000000000000 -0.099967229190  0.000000000000  0.000000000000  0.000000000000
  0.000000000000  0.399512826100  0.000000000000  0.000000000000  0.000000000000
  0.000000000000  0.700115468900  0.000000000000  0.000000000000  0.000000000000
  0.000000000000  0.000000000000 -0.384264260800  0.000000000000  0.000000000000
  0.000000000000  0.000000000000 -0.197256743800  0.000000000000  0.000000000000
  0.000000000000  0.000000000000  1.375495512000  0.000000000000  0.000000000000
  0.000000000000  0.000000000000  0.000000000000 -0.227763502300  0.000000000000
  0.000000000000  0.000000000000  0.000000000000  0.217543604400  0.000000000000
  0.000000000000  0.000000000000  0.000000000000  0.916676961100  0.000000000000
  0.000000000000  0.000000000000  0.000000000000  0.000000000000 -0.330610062600
  0.000000000000  0.000000000000  0.000000000000  0.000000000000  0.057610953380
  0.000000000000  0.000000000000  0.000000000000  0.000000000000  1.115578745000
* p-type functions
   12    4
        512.75419200
        119.15304710
         38.75226900
      70127.13483e-5
      37759.12653e-5
       1667.88702e-4
         65.98556227
         20.12769970
      77658.92279e-4
      67079.56921e-4
      26120.43655e-4
      11498.28048e-4
  0.155916275000  0.000000000000  0.000000000000  0.000000000000
  0.607683718600  0.000000000000  0.000000000000  0.000000000000
  0.391957393100  0.000000000000  0.000000000000  0.000000000000
  0.000000000000 -0.348169152600  0.000000000000  0.000000000000
  0.000000000000  0.629032369000  0.000000000000  0.000000000000
  0.000000000000  0.666283274300  0.000000000000  0.000000000000
  0.000000000000  0.000000000000  0.004951511155  0.000000000000
  0.000000000000  0.000000000000  0.577766469100  0.000000000000
  0.000000000000  0.000000000000  0.484646036600  0.000000000000
  0.000000000000  0.000000000000  0.000000000000 -0.128392763400
  0.000000000000  0.000000000000  0.000000000000  0.585204764100
  0.000000000000  0.000000000000  0.000000000000  0.543944204000
* d-type functions
    6    2
         65.98556227
         20.12769970
      77658.92279e-4
      67079.56921e-4
      26120.43655e-4
      11498.28048e-4
  0.219767950800  0.000000000000
  0.655547362700  0.000000000000
  0.286573259000  0.000000000000
  0.000000000000  0.125066213800
  0.000000000000  0.668678557700
  0.000000000000  0.305246824500

/I.STO-3G.Pietro.15s12p6d.5s4p2d.
W.J. Pietro, E.S. Blurock, R.F. Hout, W.J. Hehre, D.J. DeFrees, R.F. Stewart. Inorg. Chem. 20 (1981) 3650-3654. doi:10.1021/ic50225a013
IODINE (15s,12p,6d) -> [5s,4p,2d]
    53.0   2
* s-type functions
   15    5
       6035.18362300
       1099.31623100
        297.51787370
        533.73664180
        124.02891710
         40.33805328
      79003.64582e-5
      42538.57892e-5
      18790.03836e-5
         69.54270545
         21.21274175
      81845.35234e-4
      72959.91196e-4
      28410.21154e-4
      12506.24506e-4
  0.154328967300  0.000000000000  0.000000000000  0.000000000000  0.000000000000
  0.535328142300  0.000000000000  0.000000000000  0.000000000000  0.000000000000
  0.444634542200  0.000000000000  0.000000000000  0.000000000000  0.000000000000
  0.000000000000 -0.099967229190  0.000000000000  0.000000000000  0.000000000000
  0.000000000000  0.399512826100  0.000000000000  0.000000000000  0.000000000000
  0.000000000000  0.700115468900  0.000000000000  0.000000000000  0.000000000000
  0.000000000000  0.000000000000 -0.384264260800  0.000000000000  0.000000000000
  0.000000000000  0.000000000000 -0.197256743800  0.000000000000  0.000000000000
  0.000000000000  0.000000000000  1.375495512000  0.000000000000  0.000000000000
  0.000000000000  0.000000000000  0.000000000000 -0.227763502300  0.000000000000
  0.000000000000  0.000000000000  0.000000000000  0.217543604400  0.000000000000
  0.000000000000  0.000000000000  0.000000000000  0.916676961100  0.000000000000
  0.000000000000  0.000000000000  0.000000000000  0.000000000000 -0.330610062600
  0.000000000000  0.000000000000  0.000000000000  0.000000000000  0.057610953380
  0.000000000000  0.000000000000  0.000000000000  0.000000000000  1.115578745000
* p-type functions
   12    4
        533.73664180
        124.02891710
         40.33805328
      79003.64582e-5
      42538.57892e-5
      18790.03836e-5
         69.54270545
         21.21274175
      81845.35234e-4
      72959.91196e-4
      28410.21154e-4
      12506.24506e-4
  0.155916275000  0.000000000000  0.000000000000  0.000000000000
  0.607683718600  0.000000000000  0.000000000000  0.000000000000
  0.391957393100  0.000000000000  0.000000000000  0.000000000000
  0.000000000000 -0.348169152600  0.000000000000  0.000000000000
  0.000000000000  0.629032369000  0.000000000000  0.000000000000
  0.000000000000  0.666283274300  0.000000000000  0.000000000000
  0.000000000000  0.000000000000  0.004951511155  0.000000000000
  0.000000000000  0.000000000000  0.577766469100  0.000000000000
  0.000000000000  0.000000000000  0.484646036600  0.000000000000
  0.000000000000  0.000000000000  0.000000000000 -0.128392763400
  0.000000000000  0.000000000000  0.000000000000  0.585204764100
  0.000000000000  0.000000000000  0.000000000000  0.543944204000
* d-type functions
    6    2
         69.54270545
         21.21274175
      81845.35234e-4
      72959.91196e-4
      28410.21154e-4
      12506.24506e-4
  0.219767950800  0.000000000000
  0.655547362700  0.000000000000
  0.286573259000  0.000000000000
  0.000000000000  0.125066213800
  0.000000000000  0.668678557700
  0.000000000000  0.305246824500

/Xe.STO-3G.Pietro.15s12p6d.5s4p2d.
W.J. Pietro, E.S. Blurock, R.F. Hout, W.J. Hehre, D.J. DeFrees, R.F. Stewart. Inorg. Chem. 20 (1981) 3650-3654. doi:10.1021/ic50225a013
XENON (15s,12p,6d) -> [5s,4p,2d]
    54.0   2
* s-type functions
   15    5
       6264.58454600
       1141.10189500
        308.82670520
        555.13983810
        129.00255970
         41.95563620
      89101.01433e-5
      47975.38759e-5
      21191.57236e-5
         73.07773504
         22.29103845
      86005.75622e-4
          7.90872828
      30796.17799e-4
      13556.55337e-4
  0.154328967300  0.000000000000  0.000000000000  0.000000000000  0.000000000000
  0.535328142300  0.000000000000  0.000000000000  0.000000000000  0.000000000000
  0.444634542200  0.000000000000  0.000000000000  0.000000000000  0.000000000000
  0.000000000000 -0.099967229190  0.000000000000  0.000000000000  0.000000000000
  0.000000000000  0.399512826100  0.000000000000  0.000000000000  0.000000000000
  0.000000000000  0.700115468900  0.000000000000  0.000000000000  0.000000000000
  0.000000000000  0.000000000000 -0.384264260800  0.000000000000  0.000000000000
  0.000000000000  0.000000000000 -0.197256743800  0.000000000000  0.000000000000
  0.000000000000  0.000000000000  1.375495512000  0.000000000000  0.000000000000
  0.000000000000  0.000000000000  0.000000000000 -0.227763502300  0.000000000000
  0.000000000000  0.000000000000  0.000000000000  0.217543604400  0.000000000000
  0.000000000000  0.000000000000  0.000000000000  0.916676961100  0.000000000000
  0.000000000000  0.000000000000  0.000000000000  0.000000000000 -0.330610062600
  0.000000000000  0.000000000000  0.000000000000  0.000000000000  0.057610953380
  0.000000000000  0.000000000000  0.000000000000  0.000000000000  1.115578745000
* p-type functions
   12    4
        555.13983810
        129.00255970
         41.95563620
      89101.01433e-5
      47975.38759e-5
      21191.57236e-5
         73.07773504
         22.29103845
      86005.75622e-4
          7.90872828
      30796.17799e-4
      13556.55337e-4
  0.155916275000  0.000000000000  0.000000000000  0.000000000000
  0.607683718600  0.000000000000  0.000000000000  0.000000000000
  0.391957393100  0.000000000000  0.000000000000  0.000000000000
  0.000000000000 -0.348169152600  0.000000000000  0.000000000000
  0.000000000000  0.629032369000  0.000000000000  0.000000000000
  0.000000000000  0.666283274300  0.000000000000  0.000000000000
  0.000000000000  0.000000000000  0.004951511155  0.000000000000
  0.000000000000  0.000000000000  0.577766469100  0.000000000000
  0.000000000000  0.000000000000  0.484646036600  0.000000000000
  0.000000000000  0.000000000000  0.000000000000 -0.128392763400
  0.000000000000  0.000000000000  0.000000000000  0.585204764100
  0.000000000000  0.000000000000  0.000000000000  0.543944204000
* d-type functions
    6    2
         73.07773504
         22.29103845
      86005.75622e-4
          7.90872828
      30796.17799e-4
      13556.55337e-4
  0.219767950800  0.000000000000
  0.655547362700  0.000000000000
  0.286573259000  0.000000000000
  0.000000000000  0.125066213800
  0.000000000000  0.668678557700
  0.000000000000  0.305246824500
