************************************************************************
* This file is part of OpenMolcas.                                     *
*                                                                      *
* OpenMolcas is free software; you can redistribute it and/or modify   *
* it under the terms of the GNU Lesser General Public License, v. 2.1. *
* OpenMolcas is distributed in the hope that it will be useful, but it *
* is provided "as is" and without any express or implied warranties.   *
* For more details see the full text of the license in the file        *
* LICENSE or in <http://www.gnu.org/licenses/>.                        *
************************************************************************

#Hamiltonian RCP
#Nucleus UNK
#Contraction RAF
#AllElectron NAE

************************************************************************
* This file has been generated from Stuttgart/Cologne PP data:         *
*   http://www.tc.uni-koeln.de/PP/index.en.html                        *
************************************************************************
* The selection of pseudopotentials is *not* equivalent to either      *
* "Stuttgart RLC" or "Stuttgart RSC 1997" from the Basis Set Exchange: *
*   Li-Be:       ECP2SDF                                               *
*   B-Ne:        ECP2MWB                                               *
*   Na-Mg:       ECP10SDF                                              *
*   Al-Ca,Cu-Zn: ECP10MWB                                              *
*   Sc-Ni:       ECP10MDF                                              *
*   Ga-Cd:       ECP28MWB                                              *
*   In-Ba:       ECP46MWB                                              *
*   La-Lu:       ECP46MWB..ECP60MWB (La-Yb: 10/11 electrons)           *
*   Hf-Hg:       ECP60MWB (Hg: 20 electrons)                           *
*   Hg-Rn:       ECP78MWB (Hg: 2 electrons)                            *
*   Ac-Fm:       ECP60MWB_ANO                                          *
************************************************************************

/Li.Stuttgart.Fuentealba.4s4p.2s2p.ECP.1el.
P. Fuentealba, H. Preuss, H. Stoll, L. von Szentpaly. Chem. Phys. Lett. 89 (1982) 418-422. doi:10.1016/0009-2614(82)80012-2
LITHIUM (4s,4p) -> [2s,2p]
     1.0   1
* s-type functions
    4    2
          3.04732700
          0.60357900
          0.06913800
          0.02650200
   0.00655500   0.00000000
  -0.14040100   0.00000000
   0.62375600   0.00000000
   0.00000000   1.00000000
* p-type functions
    4    2
          0.83715800
          0.17194100
          0.05207900
          0.01917200
   0.04350700   0.00000000
   0.22964900   0.00000000
   0.56294900   0.00000000
   0.00000000   1.00000000
PP, Li, 2, 2 ;
  1 ;
 2,     1.00000000,     0.00000000 ;
  1 ;
 2,     1.27600000,     5.78600000 ;
  1 ;
 2,     1.60700000,    -1.06500000 ;
Spectral Representation Operator
End of Spectral Representation Operator

/Be.Stuttgart.Fuentealba.4s4p.2s2p.ECP.2el.
P. Fuentealba, L. von Szentpaly, H. Preuss, H. Stoll. J. Phys. B 18 (1985) 1287-1296. doi:10.1088/0022-3700/18/7/010
BERYLLIUM (4s,4p) -> [2s,2p]
     2.0   1
* s-type functions
    4    2
          1.11064430
          0.37146500
          0.13267800
          0.04775100
  -0.17188900   0.00000000
   0.12915800   0.00000000
   0.61485900   0.00000000
   0.00000000   1.00000000
* p-type functions
    4    2
          2.88457770
          0.78014400
          0.22006100
          0.06640700
   0.03152500   0.00000000
   0.14388800   0.00000000
   0.48461200   0.00000000
   0.00000000   1.00000000
PP, Be, 2, 2 ;
  1 ;
 2,     1.00000000,     0.00000000 ;
  1 ;
 2,     2.65300000,    13.32500000 ;
  1 ;
 2,     3.12000000,    -1.57400000 ;
Spectral Representation Operator
End of Spectral Representation Operator

/B.Stuttgart.Bergner.4s4p.2s2p.ECP.3el.
A. Bergner, M. Dolg, W. Kuchle, H. Stoll, H. Preuss. Mol. Phys. 80 (1993) 1431-1441. doi:10.1080/00268979300103121
BORON (4s,4p) -> [2s,2p]
     3.0   1
* s-type functions
    4    2
          1.69056000
          0.98366600
          0.25697900
          0.09503800
  -0.27220800   0.00000000
   0.20112800   0.00000000
   0.57776300   0.00000000
   0.00000000   1.00000000
* p-type functions
    4    2
          5.39991300
          1.27121700
          0.36190900
          0.10766100
   0.03494100   0.00000000
   0.18683400   0.00000000
   0.46846300   0.00000000
   0.00000000   1.00000000
PP, B, 2, 3 ;
  1 ;
 2,     1.00000000,     0.00000000 ;
  1 ;
 2,     4.50610000,    23.99296000 ;
  1 ;
 2,     5.22950000,    -1.76672400 ;
  1 ;
 2,     0.01080000,    -0.00175400 ;
Spectral Representation Operator
End of Spectral Representation Operator

/C.Stuttgart.Bergner.4s4p.2s2p.ECP.4el.
A. Bergner, M. Dolg, W. Kuchle, H. Stoll, H. Preuss. Mol. Phys. 80 (1993) 1431-1441. doi:10.1080/00268979300103121
CARBON (4s,4p) -> [2s,2p]
     4.0   1
* s-type functions
    4    2
          2.26310100
          1.77318600
          0.40861900
          0.13917500
   0.49654800   0.00000000
  -0.42239100   0.00000000
  -0.59935600   0.00000000
   0.00000000   1.00000000
* p-type functions
    4    2
          8.38302500
          1.99313200
          0.55954300
          0.15612600
  -0.03854400   0.00000000
  -0.20318500   0.00000000
  -0.49817600   0.00000000
   0.00000000   1.00000000
PP, C, 2, 3 ;
  1 ;
 2,     1.00000000,     0.00000000 ;
  1 ;
 2,     6.40105200,    33.12163800 ;
  1 ;
 2,     7.30774700,    -1.98625700 ;
  1 ;
 2,     5.96179600,    -9.45431800 ;
Spectral Representation Operator
End of Spectral Representation Operator

/N.Stuttgart.Bergner.4s4p.2s2p.ECP.5el.
A. Bergner, M. Dolg, W. Kuchle, H. Stoll, H. Preuss. Mol. Phys. 80 (1993) 1431-1441. doi:10.1080/00268979300103121
NITROGEN (4s,4p) -> [2s,2p]
     5.0   1
* s-type functions
    4    2
         32.65683900
          4.58918900
          0.70625100
          0.21639900
  -0.01379400   0.00000000
   0.12912900   0.00000000
  -0.56809400   0.00000000
   0.00000000   1.00000000
* p-type functions
    4    2
         12.14697400
          2.88426500
          0.80856400
          0.22216300
  -0.04129600   0.00000000
  -0.21400900   0.00000000
  -0.50278300   0.00000000
   0.00000000   1.00000000
PP, N, 2, 3 ;
  1 ;
 2,     1.00000000,     0.00000000 ;
  1 ;
 2,     7.97723200,    38.53383100 ;
  1 ;
 2,    10.18385400,    -2.55081000 ;
  1 ;
 2,    11.55994700,    -2.99554500 ;
Spectral Representation Operator
End of Spectral Representation Operator

/O.Stuttgart.Bergner.4s5p.2s3p.ECP.6el.
A. Bergner, M. Dolg, W. Kuchle, H. Stoll, H. Preuss. Mol. Phys. 80 (1993) 1431-1441. doi:10.1080/00268979300103121
OXYGEN (4s,5p) -> [2s,3p]
     6.0   1
* s-type functions
    4    2
         47.10551800
          5.91134600
          0.97648300
          0.29607000
  -0.01440800   0.00000000
   0.12956800   0.00000000
  -0.56311800   0.00000000
   0.00000000   1.00000000
* p-type functions
    5    3
         16.69221900
          3.90070200
          1.07825300
          0.28418900
          0.07020000
   0.04485600   0.00000000   0.00000000
   0.22261300   0.00000000   0.00000000
   0.50018800   0.00000000   0.00000000
   0.00000000   1.00000000   0.00000000
   0.00000000   0.00000000   1.00000000
PP, O, 2, 3 ;
  1 ;
 2,     1.00000000,     0.00000000 ;
  1 ;
 2,    10.44567000,    50.77106900 ;
  1 ;
 2,    18.04517400,    -4.90355100 ;
  1 ;
 2,     8.16479800,    -3.31212400 ;
Spectral Representation Operator
End of Spectral Representation Operator

/F.Stuttgart.Bergner.4s5p.2s3p.ECP.7el.
A. Bergner, M. Dolg, W. Kuchle, H. Stoll, H. Preuss. Mol. Phys. 80 (1993) 1431-1441. doi:10.1080/00268979300103121
FLUORINE (4s,5p) -> [2s,3p]
     7.0   1
* s-type functions
    4    2
         51.64276300
          9.41427700
          1.21412300
          0.37008100
   0.00856600   0.00000000
  -0.15300900   0.00000000
   0.58983500   0.00000000
   0.00000000   1.00000000
* p-type functions
    5    3
         22.30083000
          4.95457300
          1.34231100
          0.34653000
          0.08477200
   0.05185100   0.00000000   0.00000000
   0.23728700   0.00000000   0.00000000
   0.50766600   0.00000000   0.00000000
   0.00000000   1.00000000   0.00000000
   0.00000000   0.00000000   1.00000000
PP, F, 2, 3 ;
  1 ;
 2,     1.00000000,     0.00000000 ;
  2 ;
 2,    22.35040000,   102.59795200 ;
 2,    11.17520000,    19.04966300 ;
  2 ;
 2,    26.47680000,   -15.14396000 ;
 2,    13.23840000,     2.80292100 ;
  1 ;
 2,     0.03160000,    -0.00186300 ;
Spectral Representation Operator
End of Spectral Representation Operator

/Ne.Stuttgart.Nicklass.7s7p3d1f.4s4p3d1f.ECP.8el.
A. Nicklass, M. Dolg, H. Stoll, H. Preuss. J. Chem. Phys. 102 (1995) 8942-8952. doi:10.1063/1.468948
NEON (7s,7p,3d,1f) -> [4s,4p,3d,1f]
     8.0   3
* s-type functions
    7    4
        612.00243700
         80.95204400
         13.86420100
          8.74552600
          1.99234600
          0.80080300
          0.30777400
  -0.00610700   0.00000000   0.00000000   0.00000000
  -0.04260300   0.00000000   0.00000000   0.00000000
   0.45219600   0.00000000   0.00000000   0.00000000
   0.57995600   0.00000000   0.00000000   0.00000000
   0.00000000   1.00000000   0.00000000   0.00000000
   0.00000000   0.00000000   1.00000000   0.00000000
   0.00000000   0.00000000   0.00000000   1.00000000
* p-type functions
    7    4
        158.31453500
         37.30112800
         12.70555800
          4.58708700
          1.73566200
          0.64055300
          0.22254400
   0.00785100   0.00000000   0.00000000   0.00000000
   0.07131600   0.00000000   0.00000000   0.00000000
   0.28639200   0.00000000   0.00000000   0.00000000
   0.73539400   0.00000000   0.00000000   0.00000000
   0.00000000   1.00000000   0.00000000   0.00000000
   0.00000000   0.00000000   1.00000000   0.00000000
   0.00000000   0.00000000   0.00000000   1.00000000
* d-type functions
    3    3
          4.27480000
          1.17170000
          0.32110000
   1.00000000   0.00000000   0.00000000
   0.00000000   1.00000000   0.00000000
   0.00000000   0.00000000   1.00000000
* f-type functions
    1    1
          2.57950000
   1.00000000
PP, Ne, 2, 3 ;
  1 ;
 2,     1.00000000,     0.00000000 ;
  2 ;
 2,    31.86016200,   112.52543566 ;
 2,    12.36221900,    28.30083454 ;
  2 ;
 2,    21.50803400,   -11.12658543 ;
 2,    12.91044700,     3.38754919 ;
  1 ;
 2,     0.85038500,    -0.18408921 ;
Spectral Representation Operator
End of Spectral Representation Operator

/Na.Stuttgart.Fuentealba.4s4p.2s2p.ECP.1el.
P. Fuentealba, H. Preuss, H. Stoll, L. von Szentpaly. Chem. Phys. Lett. 89 (1982) 418-422. doi:10.1016/0009-2614(82)80012-2
SODIUM (4s,4p) -> [2s,2p]
     1.0   1
* s-type functions
    4    2
          2.60333630
          0.51721700
          0.05819600
          0.02314100
   0.00882400   0.00000000
  -0.18322700   0.00000000
   0.65201700   0.00000000
   0.00000000   1.00000000
* p-type functions
    4    2
          0.49920600
          0.07921900
          0.02994600
          0.01260500
   0.01854700   0.00000000
   0.27621100   0.00000000
   0.58700400   0.00000000
   0.00000000   1.00000000
PP, Na, 10, 3 ;
  1 ;
 2,     1.00000000,     0.00000000 ;
  1 ;
 2,     1.37800000,    10.83900000 ;
  1 ;
 2,     0.66390000,     2.30300000 ;
  1 ;
 2,     0.92490000,    -1.77700000 ;
Spectral Representation Operator
End of Spectral Representation Operator

/Mg.Stuttgart.Fuentealba.4s4p.2s2p.ECP.2el.
P. Fuentealba, L. von Szentpaly, H. Preuss, H. Stoll. J. Phys. B 18 (1985) 1287-1296. doi:10.1088/0022-3700/18/7/010
MAGNESIUM (4s,4p) -> [2s,2p]
     2.0   1
* s-type functions
    4    2
          2.42571930
          0.82262500
          0.10774900
          0.03948500
   0.02676400   0.00000000
  -0.22388000   0.00000000
   0.62046400   0.00000000
   0.00000000   1.00000000
* p-type functions
    4    2
          0.76904700
          0.18867500
          0.07510100
          0.02949700
  -0.03664800   0.00000000
   0.24314500   0.00000000
   0.55478400   0.00000000
   0.00000000   1.00000000
PP, Mg, 10, 3 ;
  1 ;
 2,     1.00000000,     0.00000000 ;
  1 ;
 2,     1.73200000,    14.67600000 ;
  1 ;
 2,     1.11500000,     5.17570000 ;
  1 ;
 2,     1.20300000,    -1.81600000 ;
Spectral Representation Operator
End of Spectral Representation Operator

/Al.Stuttgart.Bergner.4s4p.2s2p.ECP.3el.
A. Bergner, M. Dolg, W. Kuchle, H. Stoll, H. Preuss. Mol. Phys. 80 (1993) 1431-1441. doi:10.1080/00268979300103121
ALUMINIUM (4s,4p) -> [2s,2p]
     3.0   1
* s-type functions
    4    2
          2.78633700
          1.14363500
          0.17002700
          0.06732400
  -0.04641100   0.00000000
   0.27447200   0.00000000
  -0.62523400   0.00000000
   0.00000000   1.00000000
* p-type functions
    4    2
          0.98379400
          0.35824500
          0.13815800
          0.04497500
   0.05203600   0.00000000
  -0.15509400   0.00000000
  -0.53258400   0.00000000
   0.00000000   1.00000000
PP, Al, 10, 3 ;
  1 ;
 2,     1.00000000,     0.00000000 ;
  1 ;
 2,     2.19822500,    20.40981300 ;
  1 ;
 2,     1.60139500,     8.98049500 ;
  1 ;
 2,     1.49902600,    -1.97041100 ;
Spectral Representation Operator
End of Spectral Representation Operator

/Si.Stuttgart.Bergner.4s4p.2s2p.ECP.4el.
A. Bergner, M. Dolg, W. Kuchle, H. Stoll, H. Preuss. Mol. Phys. 80 (1993) 1431-1441. doi:10.1080/00268979300103121
SILICON (4s,4p) -> [2s,2p]
     4.0   1
* s-type functions
    4    2
          4.01437800
          1.39370700
          0.25165800
          0.10018000
  -0.03950800   0.00000000
   0.29615000   0.00000000
  -0.59975200   0.00000000
   0.00000000   1.00000000
* p-type functions
    4    2
          1.10248100
          0.58312700
          0.20867500
          0.06914700
   0.08458300   0.00000000
  -0.18574800   0.00000000
  -0.55485200   0.00000000
   0.00000000   1.00000000
PP, Si, 10, 3 ;
  1 ;
 2,     1.00000000,     0.00000000 ;
  1 ;
 2,     2.71362197,    26.62331865 ;
  1 ;
 2,     1.96687987,    10.92995391 ;
  1 ;
 2,     2.71001600,    -4.66941200 ;
Spectral Representation Operator
End of Spectral Representation Operator

/P.Stuttgart.Bergner.4s4p.2s2p.ECP.5el.
A. Bergner, M. Dolg, W. Kuchle, H. Stoll, H. Preuss. Mol. Phys. 80 (1993) 1431-1441. doi:10.1080/00268979300103121
PHOSPHORUS (4s,4p) -> [2s,2p]
     5.0   1
* s-type functions
    4    2
          6.72230800
          1.62406300
          0.33192900
          0.12081900
  -0.03245500   0.00000000
   0.28505600   0.00000000
  -0.64691400   0.00000000
   0.00000000   1.00000000
* p-type functions
    4    2
          1.28322100
          0.59972500
          0.22775900
          0.08442400
  -0.05596200   0.00000000
   0.28636300   0.00000000
   0.55225700   0.00000000
   0.00000000   1.00000000
PP, P, 10, 3 ;
  1 ;
 2,     1.00000000,     0.00000000 ;
  1 ;
 2,     2.94055986,    26.53226131 ;
  1 ;
 2,     2.22771255,    11.49721021 ;
  1 ;
 2,     5.66170600,   -16.77278000 ;
Spectral Representation Operator
End of Spectral Representation Operator

/S.Stuttgart.Bergner.4s5p.2s3p.ECP.6el.
A. Bergner, M. Dolg, W. Kuchle, H. Stoll, H. Preuss. Mol. Phys. 80 (1993) 1431-1441. doi:10.1080/00268979300103121
SULFUR (4s,5p) -> [2s,3p]
     6.0   1
* s-type functions
    4    2
          6.83351800
          2.07773800
          0.41912100
          0.15323700
  -0.04387500   0.00000000
   0.31989400   0.00000000
  -0.66123300   0.00000000
   0.00000000   1.00000000
* p-type functions
    5    3
          1.81713900
          0.85507000
          0.31205300
          0.10168700
          0.02981000
  -0.07922700   0.00000000   0.00000000
   0.26367100   0.00000000   0.00000000
   0.58068200   0.00000000   0.00000000
   0.00000000   1.00000000   0.00000000
   0.00000000   0.00000000   1.00000000
PP, S, 10, 3 ;
  1 ;
 2,     1.00000000,     0.00000000 ;
  1 ;
 2,     3.74389164,    37.97481900 ;
  1 ;
 2,     3.08608744,    18.79052931 ;
  1 ;
 2,     4.86241400,    -7.83796400 ;
Spectral Representation Operator
End of Spectral Representation Operator

/Cl.Stuttgart.Bergner.4s5p.2s3p.ECP.7el.
A. Bergner, M. Dolg, W. Kuchle, H. Stoll, H. Preuss. Mol. Phys. 80 (1993) 1431-1441. doi:10.1080/00268979300103121
CHLORINE (4s,5p) -> [2s,3p]
     7.0   1
* s-type functions
    4    2
         14.07307600
          2.33156500
          0.50710000
          0.18243300
   0.02034500   0.00000000
  -0.28922300   0.00000000
   0.63036700   0.00000000
   0.00000000   1.00000000
* p-type functions
    5    3
          3.35312900
          0.78568600
          0.26745400
          0.07827500
          0.01547700
  -0.04155200   0.00000000   0.00000000
   0.39974800   0.00000000   0.00000000
   0.59182900   0.00000000   0.00000000
   0.00000000   1.00000000   0.00000000
   0.00000000   0.00000000   1.00000000
PP, Cl, 10, 3 ;
  1 ;
 2,     1.00000000,     0.00000000 ;
  2 ;
 2,     6.39430000,    33.13663200 ;
 2,     3.19710000,    16.27072800 ;
  2 ;
 2,     5.62070000,    24.41699300 ;
 2,     2.81030000,     7.68305000 ;
  1 ;
 2,     5.33810000,    -8.58764900 ;
Spectral Representation Operator
End of Spectral Representation Operator

/Ar.Stuttgart.Nicklass.6s6p3d1f.4s4p3d1f.ECP.8el.
A. Nicklass, M. Dolg, H. Stoll, H. Preuss. J. Chem. Phys. 102 (1995) 8942-8952. doi:10.1063/1.468948
ARGON (6s,6p,3d,1f) -> [4s,4p,3d,1f]
     8.0   3
* s-type functions
    6    4
        174.66965500
         12.69576800
          2.91783400
          0.67084000
          0.29911200
          0.13140200
   0.00258700   0.00000000   0.00000000   0.00000000
   0.06231300   0.00000000   0.00000000   0.00000000
  -1.04215800   0.00000000   0.00000000   0.00000000
   0.00000000   1.00000000   0.00000000   0.00000000
   0.00000000   0.00000000   1.00000000   0.00000000
   0.00000000   0.00000000   0.00000000   1.00000000
* p-type functions
    6    4
         19.88722100
          3.77617200
          1.21151600
          0.53849900
          0.22957500
          0.09510300
   0.02334600   0.00000000   0.00000000   0.00000000
  -0.22462100   0.00000000   0.00000000   0.00000000
   1.13759600   0.00000000   0.00000000   0.00000000
   0.00000000   1.00000000   0.00000000   0.00000000
   0.00000000   0.00000000   1.00000000   0.00000000
   0.00000000   0.00000000   0.00000000   1.00000000
* d-type functions
    3    3
          1.45090000
          0.43850000
          0.13250000
   1.00000000   0.00000000   0.00000000
   0.00000000   1.00000000   0.00000000
   0.00000000   0.00000000   1.00000000
* f-type functions
    1    1
          0.93050000
   1.00000000
PP, Ar, 10, 4 ;
  1 ;
 2,     1.00000000,     0.00000000 ;
  2 ;
 2,    10.26172100,    68.66778801 ;
 2,     3.95272500,    24.04276629 ;
  2 ;
 2,     5.39271400,    27.73076331 ;
 2,     2.69996700,     4.04545904 ;
  2 ;
 2,     8.08623500,    -8.13747696 ;
 2,     4.01663200,    -1.66452808 ;
  1 ;
 2,     5.20845900,    -3.40009845 ;
Spectral Representation Operator
End of Spectral Representation Operator

/K.Stuttgart.Leininger.7s6p.5s4p.ECP.9el.
T. Leininger, A. Nicklass, W. Kuchle, H. Stoll, M. Dolg, A. Bergner. Chem. Phys. Lett. 255 (1996) 274-280 doi:10.1016/0009-2614(96)00382-x
POTASSIUM (7s,6p) -> [5s,4p]
     9.0   1
* s-type functions
    7    5
          8.22336200
          3.79721100
          1.33160700
          0.66628200
          0.27280700
          0.03709200
          0.01654300
   0.10414500   0.00000000   0.00000000   0.00000000   0.00000000
  -0.43915800   0.00000000   0.00000000   0.00000000   0.00000000
   0.05219100   0.00000000   0.00000000   0.00000000   0.00000000
   0.00000000   1.00000000   0.00000000   0.00000000   0.00000000
   0.00000000   0.00000000   1.00000000   0.00000000   0.00000000
   0.00000000   0.00000000   0.00000000   1.00000000   0.00000000
   0.00000000   0.00000000   0.00000000   0.00000000   1.00000000
* p-type functions
    6    4
         21.60567000
          1.10021200
          0.50434500
          0.31786900
          0.14815000
          0.02213900
  -0.01173700   0.00000000   0.00000000   0.00000000
  -0.40767500   0.00000000   0.00000000   0.00000000
  -0.33329200   0.00000000   0.00000000   0.00000000
   0.00000000   1.00000000   0.00000000   0.00000000
   0.00000000   0.00000000   1.00000000   0.00000000
   0.00000000   0.00000000   0.00000000   1.00000000
PP, K, 10, 4 ;
  1 ;
 2,     1.00000000,     0.00000000 ;
  1 ;
 2,     6.84380700,    92.25263900 ;
  1 ;
 2,     4.21785700,    23.49803500 ;
  1 ;
 2,     6.49753700,    -7.31542000 ;
  1 ;
 2,     6.12361300,    -3.85832000 ;
Spectral Representation Operator
End of Spectral Representation Operator

/Ca.Stuttgart.Kaupp.6s6p5d.4s4p2d.ECP.10el.
M. Kaupp, P.v.R. Schleyer, H. Stoll, H. Preuss. J. Chem. Phys. 94 (1991) 1360-1366. doi:10.1063/1.459993
CALCIUM (6s,6p,5d) -> [4s,4p,2d]
    10.0   2
* s-type functions
    6    4
         12.30752100
          4.39315100
          0.93797500
          0.42168800
          0.05801700
          0.02322200
   0.05874000   0.00000000   0.00000000   0.00000000
  -0.40134400   0.00000000   0.00000000   0.00000000
   0.59287500   0.00000000   0.00000000   0.00000000
   0.00000000   1.00000000   0.00000000   0.00000000
   0.00000000   0.00000000   1.00000000   0.00000000
   0.00000000   0.00000000   0.00000000   1.00000000
* p-type functions
    6    4
          5.97428600
          1.56740600
          0.65624200
          0.25849800
          0.08100000
          0.03000000
  -0.08230200   0.00000000   0.00000000   0.00000000
   0.34651100   0.00000000   0.00000000   0.00000000
   0.56014700   0.00000000   0.00000000   0.00000000
   0.00000000   1.00000000   0.00000000   0.00000000
   0.00000000   0.00000000   1.00000000   0.00000000
   0.00000000   0.00000000   0.00000000   1.00000000
* d-type functions
    5    2
          7.23170000
          1.96486900
          0.62030300
          0.18126000
          0.04910700
   0.05036000   0.00000000
   0.17334300   0.00000000
   0.30197800   0.00000000
   0.00000000   0.43805500
   0.00000000   0.46472000
PP, Ca, 10, 4 ;
  1 ;
 2,     1.00000000,     0.00000000 ;
  2 ;
 2,    11.23167200,   138.78517400 ;
 2,     4.67196000,    16.50424400 ;
  2 ;
 2,    11.15690700,    83.12366400 ;
 2,     4.81014100,    13.50227200 ;
  2 ;
 2,    13.75472800,   -16.20196500 ;
 2,     4.76247000,    -1.13239000 ;
  1 ;
 2,    12.76584600,   -26.72817800 ;
Spectral Representation Operator
End of Spectral Representation Operator

/Sc.Stuttgart.Martin.8s7p6d2f1g.6s5p3d2f1g.ECP.11el.
J.M.L. Martin, A. Sundermann. J. Chem. Phys. 114 (2001) 3408-3420. doi:10.1063/1.1337864
SCANDIUM (8s,7p,6d,2f,1g) -> [6s,5p,3d,2f,1g]
    11.0   4
* s-type functions
    8    6
         10.00926000
          8.47076200
          4.17911600
          1.06920800
          0.44124800
          0.06443200
          0.02720000
          0.01000000
   1.00789600   0.00000000   0.00000000   0.00000000   0.00000000   0.00000000
  -1.17665500   0.00000000   0.00000000   0.00000000   0.00000000   0.00000000
  -0.80264700   0.00000000   0.00000000   0.00000000   0.00000000   0.00000000
   0.00000000   1.00000000   0.00000000   0.00000000   0.00000000   0.00000000
   0.00000000   0.00000000   1.00000000   0.00000000   0.00000000   0.00000000
   0.00000000   0.00000000   0.00000000   1.00000000   0.00000000   0.00000000
   0.00000000   0.00000000   0.00000000   0.00000000   1.00000000   0.00000000
   0.00000000   0.00000000   0.00000000   0.00000000   0.00000000   1.00000000
* p-type functions
    7    5
         41.71184600
          6.02601500
          2.71599500
          1.05691400
          0.37694100
          0.07416100
          0.02380500
   0.02091200   0.00000000   0.00000000   0.00000000   0.00000000
  -1.00732900   0.00000000   0.00000000   0.00000000   0.00000000
   0.00000000   0.25364400   0.00000000   0.00000000   0.00000000
   0.00000000   0.79264300   0.00000000   0.00000000   0.00000000
   0.00000000   0.00000000   1.00000000   0.00000000   0.00000000
   0.00000000   0.00000000   0.00000000   1.00000000   0.00000000
   0.00000000   0.00000000   0.00000000   0.00000000   1.00000000
* d-type functions
    6    3
         16.27354800
          4.80004900
          1.54129300
          0.46818000
          0.12279900
          0.04000000
   0.03555900   0.00000000   0.00000000
   0.16935600   0.00000000   0.00000000
   0.42044600   0.00000000   0.00000000
   0.61731400   0.00000000   0.00000000
   0.00000000   1.00000000   0.00000000
   0.00000000   0.00000000   1.00000000
* f-type functions
    2    2
          0.76400000
          0.18000000
   1.00000000   0.00000000
   0.00000000   1.00000000
* g-type functions
    1    1
          0.34700000
   1.00000000
PP, Sc, 10, 3 ;
  1 ;
 2,     1.00000000,     0.00000000 ;
  2 ;
 2,    11.50000000,   138.53815200 ;
 2,     5.18400000,    14.83404200 ;
  2 ;
 2,    10.93000000,    82.45861400 ;
 2,     4.58100000,     8.56520600 ;
  2 ;
 2,    13.47000000,   -16.12986200 ;
 2,     4.37500000,    -0.53469000 ;
Spectral Representation Operator
End of Spectral Representation Operator

/Ti.Stuttgart.Martin.8s7p6d2f1g.6s5p3d2f1g.ECP.12el.
J.M.L. Martin, A. Sundermann. J. Chem. Phys. 114 (2001) 3408-3420. doi:10.1063/1.1337864
TITANIUM (8s,7p,6d,2f,1g) -> [6s,5p,3d,2f,1g]
    12.0   4
* s-type functions
    8    6
         10.78036500
          9.71701300
          4.50775500
          1.24670800
          0.50870700
          0.07343800
          0.03004800
          0.01000000
   1.78389200   0.00000000   0.00000000   0.00000000   0.00000000   0.00000000
  -2.00068900   0.00000000   0.00000000   0.00000000   0.00000000   0.00000000
  -0.75633300   0.00000000   0.00000000   0.00000000   0.00000000   0.00000000
   0.00000000   1.00000000   0.00000000   0.00000000   0.00000000   0.00000000
   0.00000000   0.00000000   1.00000000   0.00000000   0.00000000   0.00000000
   0.00000000   0.00000000   0.00000000   1.00000000   0.00000000   0.00000000
   0.00000000   0.00000000   0.00000000   0.00000000   1.00000000   0.00000000
   0.00000000   0.00000000   0.00000000   0.00000000   0.00000000   1.00000000
* p-type functions
    7    5
         17.56638100
          7.70584400
          3.32913800
          1.30810400
          0.45448200
          0.07177200
          0.02378400
   0.08860100   0.00000000   0.00000000   0.00000000   0.00000000
  -1.07074600   0.00000000   0.00000000   0.00000000   0.00000000
   0.00000000   0.20010900   0.00000000   0.00000000   0.00000000
   0.00000000   0.83798600   0.00000000   0.00000000   0.00000000
   0.00000000   0.00000000   1.00000000   0.00000000   0.00000000
   0.00000000   0.00000000   0.00000000   1.00000000   0.00000000
   0.00000000   0.00000000   0.00000000   0.00000000   1.00000000
* d-type functions
    6    3
         19.51919400
          5.86461300
          1.92803800
          0.60656300
          0.16396100
          0.05000000
   0.03581400   0.00000000   0.00000000
   0.17237300   0.00000000   0.00000000
   0.42513600   0.00000000   0.00000000
   0.60259500   0.00000000   0.00000000
   0.00000000   1.00000000   0.00000000
   0.00000000   0.00000000   1.00000000
* f-type functions
    2    2
          1.26400000
          0.28500000
   1.00000000   0.00000000
   0.00000000   1.00000000
* g-type functions
    1    1
          0.63600000
   1.00000000
PP, Ti, 10, 3 ;
  1 ;
 2,     1.00000000,     0.00000000 ;
  2 ;
 2,    13.01000000,   158.24159300 ;
 2,     5.86200000,    17.51182400 ;
  2 ;
 2,    12.46000000,    95.23512700 ;
 2,     5.21700000,    10.04785600 ;
  2 ;
 2,    15.35000000,   -17.56886100 ;
 2,     4.98000000,    -0.58725600 ;
Spectral Representation Operator
End of Spectral Representation Operator

/V.Stuttgart.Martin.8s7p6d2f1g.6s5p3d2f1g.ECP.13el.
J.M.L. Martin, A. Sundermann. J. Chem. Phys. 114 (2001) 3408-3420. doi:10.1063/1.1337864
VANADIUM (8s,7p,6d,2f,1g) -> [6s,5p,3d,2f,1g]
    13.0   4
* s-type functions
    8    6
         12.84320800
         11.37575300
          5.40697400
          1.46592700
          0.59808000
          0.08879000
          0.03531800
          0.01000000
   1.14064300   0.00000000   0.00000000   0.00000000   0.00000000   0.00000000
  -1.21880300   0.00000000   0.00000000   0.00000000   0.00000000   0.00000000
  -0.89290300   0.00000000   0.00000000   0.00000000   0.00000000   0.00000000
   0.00000000   1.00000000   0.00000000   0.00000000   0.00000000   0.00000000
   0.00000000   0.00000000   1.00000000   0.00000000   0.00000000   0.00000000
   0.00000000   0.00000000   0.00000000   1.00000000   0.00000000   0.00000000
   0.00000000   0.00000000   0.00000000   0.00000000   1.00000000   0.00000000
   0.00000000   0.00000000   0.00000000   0.00000000   0.00000000   1.00000000
* p-type functions
    7    5
         31.88986800
          8.23717800
          4.32837300
          1.54052600
          0.52808100
          0.08996200
          0.02639300
   0.03940700   0.00000000   0.00000000   0.00000000   0.00000000
  -1.02260300   0.00000000   0.00000000   0.00000000   0.00000000
   0.00000000   0.19275600   0.00000000   0.00000000   0.00000000
   0.00000000   0.85116800   0.00000000   0.00000000   0.00000000
   0.00000000   0.00000000   1.00000000   0.00000000   0.00000000
   0.00000000   0.00000000   0.00000000   1.00000000   0.00000000
   0.00000000   0.00000000   0.00000000   0.00000000   1.00000000
* d-type functions
    6    3
         22.68043300
          6.86131200
          2.27544500
          0.73192200
          0.20074600
          0.06000000
   0.03629300   0.00000000   0.00000000
   0.17730100   0.00000000   0.00000000
   0.43042900   0.00000000   0.00000000
   0.58930300   0.00000000   0.00000000
   0.00000000   1.00000000   0.00000000
   0.00000000   0.00000000   1.00000000
* f-type functions
    2    2
          1.78800000
          0.42500000
   1.00000000   0.00000000
   0.00000000   1.00000000
* g-type functions
    1    1
          1.04800000
   1.00000000
PP, V, 10, 3 ;
  1 ;
 2,     1.00000000,     0.00000000 ;
  2 ;
 2,    14.49000000,   178.44797100 ;
 2,     6.52400000,    19.83137500 ;
  2 ;
 2,    14.30000000,   109.52976300 ;
 2,     6.02100000,    12.57031000 ;
  2 ;
 2,    17.48000000,   -19.21965700 ;
 2,     5.70900000,    -0.64277500 ;
Spectral Representation Operator
End of Spectral Representation Operator

/Cr.Stuttgart.Martin.8s7p6d2f1g.6s5p3d2f1g.ECP.14el.
J.M.L. Martin, A. Sundermann. J. Chem. Phys. 114 (2001) 3408-3420. doi:10.1063/1.1337864
CHROMIUM (8s,7p,6d,2f,1g) -> [6s,5p,3d,2f,1g]
    14.0   4
* s-type functions
    8    6
         14.05345000
         11.73521800
          5.90491500
          1.63466500
          0.66293100
          0.09780000
          0.03770500
          0.01000000
   0.88562400   0.00000000   0.00000000   0.00000000   0.00000000   0.00000000
  -1.03013200   0.00000000   0.00000000   0.00000000   0.00000000   0.00000000
  -0.82672900   0.00000000   0.00000000   0.00000000   0.00000000   0.00000000
   0.00000000   1.00000000   0.00000000   0.00000000   0.00000000   0.00000000
   0.00000000   0.00000000   1.00000000   0.00000000   0.00000000   0.00000000
   0.00000000   0.00000000   0.00000000   1.00000000   0.00000000   0.00000000
   0.00000000   0.00000000   0.00000000   0.00000000   1.00000000   0.00000000
   0.00000000   0.00000000   0.00000000   0.00000000   0.00000000   1.00000000
* p-type functions
    7    5
         51.31766400
          9.32149800
          3.74112100
          1.51021400
          0.53795600
          0.09340800
          0.02664500
   0.02967200   0.00000000   0.00000000   0.00000000   0.00000000
  -1.01276000   0.00000000   0.00000000   0.00000000   0.00000000
   0.00000000   0.25774600   0.00000000   0.00000000   0.00000000
   0.00000000   0.78591700   0.00000000   0.00000000   0.00000000
   0.00000000   0.00000000   1.00000000   0.00000000   0.00000000
   0.00000000   0.00000000   0.00000000   1.00000000   0.00000000
   0.00000000   0.00000000   0.00000000   0.00000000   1.00000000
* d-type functions
    6    3
         26.78143900
          8.23164000
          2.78164500
          0.90367800
          0.24925800
          0.07000000
   0.03497000   0.00000000   0.00000000
   0.17219500   0.00000000   0.00000000
   0.42703200   0.00000000   0.00000000
   0.59293900   0.00000000   0.00000000
   0.00000000   1.00000000   0.00000000
   0.00000000   0.00000000   1.00000000
* f-type functions
    2    2
          2.55500000
          0.64000000
   1.00000000   0.00000000
   0.00000000   1.00000000
* g-type functions
    1    1
          1.71200000
   1.00000000
PP, Cr, 10, 3 ;
  1 ;
 2,     1.00000000,     0.00000000 ;
  2 ;
 2,    16.39000000,   201.57888700 ;
 2,     7.40200000,    24.20574100 ;
  2 ;
 2,    16.45000000,   125.02277400 ;
 2,     6.96200000,    16.47906600 ;
  2 ;
 2,    19.93000000,   -20.82742100 ;
 2,     6.59800000,    -0.83436800 ;
Spectral Representation Operator
End of Spectral Representation Operator

/Mn.Stuttgart.Martin.8s7p6d2f1g.6s5p3d2f1g.ECP.15el.
J.M.L. Martin, A. Sundermann. J. Chem. Phys. 114 (2001) 3408-3420. doi:10.1063/1.1337864
MANGANESE (8s,7p,6d,2f,1g) -> [6s,5p,3d,2f,1g]
    15.0   4
* s-type functions
    8    6
         15.56400100
         13.28692800
          6.13728100
          1.76598300
          0.71377400
          0.09832800
          0.03709700
          0.01000000
   1.09978900   0.00000000   0.00000000   0.00000000   0.00000000   0.00000000
  -1.30585100   0.00000000   0.00000000   0.00000000   0.00000000   0.00000000
  -0.76802400   0.00000000   0.00000000   0.00000000   0.00000000   0.00000000
   0.00000000   1.00000000   0.00000000   0.00000000   0.00000000   0.00000000
   0.00000000   0.00000000   1.00000000   0.00000000   0.00000000   0.00000000
   0.00000000   0.00000000   0.00000000   1.00000000   0.00000000   0.00000000
   0.00000000   0.00000000   0.00000000   0.00000000   1.00000000   0.00000000
   0.00000000   0.00000000   0.00000000   0.00000000   0.00000000   1.00000000
* p-type functions
    7    5
         27.43206100
         11.36687300
          4.45254000
          1.85345900
          0.64518000
          0.10304400
          0.02829600
   0.08385100   0.00000000   0.00000000   0.00000000   0.00000000
  -1.06496500   0.00000000   0.00000000   0.00000000   0.00000000
   0.00000000   0.20265200   0.00000000   0.00000000   0.00000000
   0.00000000   0.83175400   0.00000000   0.00000000   0.00000000
   0.00000000   0.00000000   1.00000000   0.00000000   0.00000000
   0.00000000   0.00000000   0.00000000   1.00000000   0.00000000
   0.00000000   0.00000000   0.00000000   0.00000000   1.00000000
* d-type functions
    6    3
         29.51422300
          8.96282400
          3.02796700
          0.98329200
          0.27032500
          0.07000000
   0.03716200   0.00000000   0.00000000
   0.18274500   0.00000000   0.00000000
   0.43560700   0.00000000   0.00000000
   0.57705300   0.00000000   0.00000000
   0.00000000   1.00000000   0.00000000
   0.00000000   0.00000000   1.00000000
* f-type functions
    2    2
          3.11800000
          0.79500000
   1.00000000   0.00000000
   0.00000000   1.00000000
* g-type functions
    1    1
          1.96400000
   1.00000000
PP, Mn, 10, 3 ;
  1 ;
 2,     1.00000000,     0.00000000 ;
  2 ;
 2,    18.52000000,   226.43090200 ;
 2,     8.37300000,    30.35907200 ;
  2 ;
 2,    18.92000000,   142.15470500 ;
 2,     8.01700000,    21.53650900 ;
  2 ;
 2,    22.72000000,   -22.56811900 ;
 2,     7.64000000,    -1.20581000 ;
Spectral Representation Operator
End of Spectral Representation Operator

/Fe.Stuttgart.Martin.8s7p6d2f1g.6s5p3d2f1g.ECP.16el.
J.M.L. Martin, A. Sundermann. J. Chem. Phys. 114 (2001) 3408-3420. doi:10.1063/1.1337864
IRON (8s,7p,6d,2f,1g) -> [6s,5p,3d,2f,1g]
    16.0   4
* s-type functions
    8    6
         20.51302800
          9.77679200
          4.57359900
          1.94991000
          0.76648800
          0.10079800
          0.03751600
          0.01000000
   0.23471400   0.00000000   0.00000000   0.00000000   0.00000000   0.00000000
  -0.87752700   0.00000000   0.00000000   0.00000000   0.00000000   0.00000000
  -0.34163600   0.00000000   0.00000000   0.00000000   0.00000000   0.00000000
   0.00000000   1.00000000   0.00000000   0.00000000   0.00000000   0.00000000
   0.00000000   0.00000000   1.00000000   0.00000000   0.00000000   0.00000000
   0.00000000   0.00000000   0.00000000   1.00000000   0.00000000   0.00000000
   0.00000000   0.00000000   0.00000000   0.00000000   1.00000000   0.00000000
   0.00000000   0.00000000   0.00000000   0.00000000   0.00000000   1.00000000
* p-type functions
    7    5
         63.12532600
         11.65685500
          5.17866100
          2.03553200
          0.70881800
          0.11016800
          0.02944400
   0.02714700   0.00000000   0.00000000   0.00000000   0.00000000
  -1.01187500   0.00000000   0.00000000   0.00000000   0.00000000
   0.00000000   0.21516800   0.00000000   0.00000000   0.00000000
   0.00000000   0.82509500   0.00000000   0.00000000   0.00000000
   0.00000000   0.00000000   1.00000000   0.00000000   0.00000000
   0.00000000   0.00000000   0.00000000   1.00000000   0.00000000
   0.00000000   0.00000000   0.00000000   0.00000000   1.00000000
* d-type functions
    6    3
         33.66679000
         10.23569500
          3.46648800
          1.12729600
          0.30824700
          0.08000000
   0.03652900   0.00000000   0.00000000
   0.18282500   0.00000000   0.00000000
   0.43706900   0.00000000   0.00000000
   0.57517800   0.00000000   0.00000000
   0.00000000   1.00000000   0.00000000
   0.00000000   0.00000000   1.00000000
* f-type functions
    2    2
          3.51600000
          0.87100000
   1.00000000   0.00000000
   0.00000000   1.00000000
* g-type functions
    1    1
          2.26900000
   1.00000000
PP, Fe, 10, 3 ;
  1 ;
 2,     1.00000000,     0.00000000 ;
  2 ;
 2,    20.93000000,   253.74958800 ;
 2,     9.44500000,    37.92284500 ;
  2 ;
 2,    21.76000000,   161.03681200 ;
 2,     9.17800000,    27.65129800 ;
  2 ;
 2,    25.90000000,   -24.43127600 ;
 2,     8.83500000,    -1.43425100 ;
Spectral Representation Operator
End of Spectral Representation Operator

/Co.Stuttgart.Martin.8s7p6d2f1g.6s5p3d2f1g.ECP.17el.
J.M.L. Martin, A. Sundermann. J. Chem. Phys. 114 (2001) 3408-3420. doi:10.1063/1.1337864
COBALT (8s,7p,6d,2f,1g) -> [6s,5p,3d,2f,1g]
    17.0   4
* s-type functions
    8    6
         20.90800100
         13.90623400
          7.32854300
          2.13632400
          0.85282200
          0.10669200
          0.03934600
          0.01000000
   0.39805300   0.00000000   0.00000000   0.00000000   0.00000000   0.00000000
  -0.64905200   0.00000000   0.00000000   0.00000000   0.00000000   0.00000000
  -0.72345300   0.00000000   0.00000000   0.00000000   0.00000000   0.00000000
   0.00000000   1.00000000   0.00000000   0.00000000   0.00000000   0.00000000
   0.00000000   0.00000000   1.00000000   0.00000000   0.00000000   0.00000000
   0.00000000   0.00000000   0.00000000   1.00000000   0.00000000   0.00000000
   0.00000000   0.00000000   0.00000000   0.00000000   1.00000000   0.00000000
   0.00000000   0.00000000   0.00000000   0.00000000   0.00000000   1.00000000
* p-type functions
    7    5
         67.03444300
         13.26233400
          5.69065000
          2.27194000
          0.78891100
          0.11835500
          0.03059400
   0.02937000   0.00000000   0.00000000   0.00000000   0.00000000
  -1.01362600   0.00000000   0.00000000   0.00000000   0.00000000
   0.00000000   0.20386500   0.00000000   0.00000000   0.00000000
   0.00000000   0.83364500   0.00000000   0.00000000   0.00000000
   0.00000000   0.00000000   1.00000000   0.00000000   0.00000000
   0.00000000   0.00000000   0.00000000   1.00000000   0.00000000
   0.00000000   0.00000000   0.00000000   0.00000000   1.00000000
* d-type functions
    6    3
         36.84052000
         11.17367500
          3.79756400
          1.23926200
          0.33940000
          0.09000000
   0.03805600   0.00000000   0.00000000
   0.18892500   0.00000000   0.00000000
   0.44105100   0.00000000   0.00000000
   0.56569700   0.00000000   0.00000000
   0.00000000   1.00000000   0.00000000
   0.00000000   0.00000000   1.00000000
* f-type functions
    2    2
          4.07600000
          1.01900000
   1.00000000   0.00000000
   0.00000000   1.00000000
* g-type functions
    1    1
          2.71100000
   1.00000000
PP, Co, 10, 3 ;
  1 ;
 2,     1.00000000,     0.00000000 ;
  2 ;
 2,    23.66000000,   283.96056600 ;
 2,    10.61000000,    47.15684600 ;
  2 ;
 2,    25.04000000,   182.21223600 ;
 2,    10.44000000,    35.23335200 ;
  2 ;
 2,    29.54000000,   -26.47533300 ;
 2,    10.18000000,    -1.82578700 ;
Spectral Representation Operator
End of Spectral Representation Operator

/Ni.Stuttgart.Martin.8s7p6d2f1g.6s5p3d2f1g.ECP.18el.
J.M.L. Martin, A. Sundermann. J. Chem. Phys. 114 (2001) 3408-3420. doi:10.1063/1.1337864
NICKEL (8s,7p,6d,2f,1g) -> [6s,5p,3d,2f,1g]
    18.0   4
* s-type functions
    8    6
         23.45799100
         14.86939200
          8.05415400
          2.31982400
          0.92346200
          0.10995500
          0.04013400
          0.01000000
   0.34542400   0.00000000   0.00000000   0.00000000   0.00000000   0.00000000
  -0.59501200   0.00000000   0.00000000   0.00000000   0.00000000   0.00000000
  -0.72484900   0.00000000   0.00000000   0.00000000   0.00000000   0.00000000
   0.00000000   1.00000000   0.00000000   0.00000000   0.00000000   0.00000000
   0.00000000   0.00000000   1.00000000   0.00000000   0.00000000   0.00000000
   0.00000000   0.00000000   0.00000000   1.00000000   0.00000000   0.00000000
   0.00000000   0.00000000   0.00000000   0.00000000   1.00000000   0.00000000
   0.00000000   0.00000000   0.00000000   0.00000000   0.00000000   1.00000000
* p-type functions
    7    5
         78.03878000
         14.77444000
          6.15135200
          2.49642100
          0.86670200
          0.12649900
          0.03178400
   0.02700800   0.00000000   0.00000000   0.00000000   0.00000000
  -1.01208100   0.00000000   0.00000000   0.00000000   0.00000000
   0.00000000   0.20219500   0.00000000   0.00000000   0.00000000
   0.00000000   0.83392000   0.00000000   0.00000000   0.00000000
   0.00000000   0.00000000   1.00000000   0.00000000   0.00000000
   0.00000000   0.00000000   0.00000000   1.00000000   0.00000000
   0.00000000   0.00000000   0.00000000   0.00000000   1.00000000
* d-type functions
    6    3
         40.78904800
         12.34760100
          4.20704900
          1.37541300
          0.37614700
          0.09000000
   0.03842500   0.00000000   0.00000000
   0.19149800   0.00000000   0.00000000
   0.44307500   0.00000000   0.00000000
   0.56121600   0.00000000   0.00000000
   0.00000000   1.00000000   0.00000000
   0.00000000   0.00000000   1.00000000
* f-type functions
    2    2
          4.68500000
          1.18200000
   1.00000000   0.00000000
   0.00000000   1.00000000
* g-type functions
    1    1
          3.21200000
   1.00000000
PP, Ni, 10, 3 ;
  1 ;
 2,     1.00000000,     0.00000000 ;
  2 ;
 2,    26.74000000,   317.68227200 ;
 2,    11.86000000,    58.25539100 ;
  2 ;
 2,    28.80000000,   252.47436600 ;
 2,    11.79000000,    36.08150300 ;
  2 ;
 2,    33.70000000,   -18.52295500 ;
 2,    11.66000000,    -4.55766800 ;
Spectral Representation Operator
End of Spectral Representation Operator

/Cu.Stuttgart.Dolg.8s7p6d2f1g.6s5p3d2f1g.ECP.19el.
M. Dolg, U. Wedig, H. Stoll, H. Preuss. J. Chem. Phys. 86 (1987) 866-872. doi:10.1063/1.452288
COPPER (8s,7p,6d,2f,1g) -> [6s,5p,3d,2f,1g]
    19.0   4
* s-type functions
    8    6
         27.69632000
         13.50535000
          8.81535500
          2.38080500
          0.95261600
          0.11266200
          0.04048600
          0.01000000
   0.23113200   0.00000000   0.00000000   0.00000000   0.00000000   0.00000000
  -0.65681100   0.00000000   0.00000000   0.00000000   0.00000000   0.00000000
  -0.54587500   0.00000000   0.00000000   0.00000000   0.00000000   0.00000000
   0.00000000   1.00000000   0.00000000   0.00000000   0.00000000   0.00000000
   0.00000000   0.00000000   1.00000000   0.00000000   0.00000000   0.00000000
   0.00000000   0.00000000   0.00000000   1.00000000   0.00000000   0.00000000
   0.00000000   0.00000000   0.00000000   0.00000000   1.00000000   0.00000000
   0.00000000   0.00000000   0.00000000   0.00000000   0.00000000   1.00000000
* p-type functions
    7    5
         93.50432700
         16.28546400
          5.99423600
          2.53687500
          0.89793400
          0.13172900
          0.03087800
   0.02282900   0.00000000   0.00000000   0.00000000   0.00000000
  -1.00951300   0.00000000   0.00000000   0.00000000   0.00000000
   0.00000000   0.24645000   0.00000000   0.00000000   0.00000000
   0.00000000   0.79202400   0.00000000   0.00000000   0.00000000
   0.00000000   0.00000000   1.00000000   0.00000000   0.00000000
   0.00000000   0.00000000   0.00000000   1.00000000   0.00000000
   0.00000000   0.00000000   0.00000000   0.00000000   1.00000000
* d-type functions
    6    3
         41.22500600
         12.34325000
          4.20192000
          1.37982500
          0.38345300
          0.10000000
   0.04469400   0.00000000   0.00000000
   0.21210600   0.00000000   0.00000000
   0.45342300   0.00000000   0.00000000
   0.53346500   0.00000000   0.00000000
   0.00000000   1.00000000   0.00000000
   0.00000000   0.00000000   1.00000000
* f-type functions
    2    2
          5.20800000
          1.31500000
   1.00000000   0.00000000
   0.00000000   1.00000000
* g-type functions
    1    1
          3.66500000
   1.00000000
PP, Cu, 10, 3 ;
  1 ;
 2,     1.00000000,     0.00000000 ;
  2 ;
 2,    30.22000000,   355.77015800 ;
 2,    13.19000000,    70.86535700 ;
  2 ;
 2,    33.13000000,   233.89197600 ;
 2,    13.22000000,    53.94729900 ;
  2 ;
 2,    38.42000000,   -31.27216500 ;
 2,    13.26000000,    -2.74110400 ;
Spectral Representation Operator
End of Spectral Representation Operator

/Zn.Stuttgart.Dolg.8s7p6d2f1g.6s5p3d2f1g.ECP.20el.
M. Dolg, U. Wedig, H. Stoll, H. Preuss. J. Chem. Phys. 86 (1987) 866-872. doi:10.1063/1.452288
ZINC (8s,7p,6d,2f,1g) -> [6s,5p,3d,2f,1g]
    20.0   4
* s-type functions
    8    6
         30.32412700
         16.31668200
         11.40814800
          2.56949200
          1.06259500
          0.15155300
          0.05274700
          0.01000000
   0.21914300   0.00000000   0.00000000   0.00000000   0.00000000   0.00000000
  -0.23255600   0.00000000   0.00000000   0.00000000   0.00000000   0.00000000
  -0.95468500   0.00000000   0.00000000   0.00000000   0.00000000   0.00000000
   0.00000000   1.00000000   0.00000000   0.00000000   0.00000000   0.00000000
   0.00000000   0.00000000   1.00000000   0.00000000   0.00000000   0.00000000
   0.00000000   0.00000000   0.00000000   1.00000000   0.00000000   0.00000000
   0.00000000   0.00000000   0.00000000   0.00000000   1.00000000   0.00000000
   0.00000000   0.00000000   0.00000000   0.00000000   0.00000000   1.00000000
* p-type functions
    7    5
        111.82498000
         19.13191000
          5.46883800
          2.50567500
          0.94186800
          0.17113100
          0.04998600
   0.02327700   0.00000000   0.00000000   0.00000000   0.00000000
  -1.00953900   0.00000000   0.00000000   0.00000000   0.00000000
   0.00000000   0.32015100   0.00000000   0.00000000   0.00000000
   0.00000000   0.71808500   0.00000000   0.00000000   0.00000000
   0.00000000   0.00000000   1.00000000   0.00000000   0.00000000
   0.00000000   0.00000000   0.00000000   1.00000000   0.00000000
   0.00000000   0.00000000   0.00000000   0.00000000   1.00000000
* d-type functions
    6    3
         44.64562900
         13.43837700
          4.68200000
          1.60321100
          0.48276600
          0.11000000
   0.04724900   0.00000000   0.00000000
   0.21892600   0.00000000   0.00000000
   0.45251200   0.00000000   0.00000000
   0.51857600   0.00000000   0.00000000
   0.00000000   1.00000000   0.00000000
   0.00000000   0.00000000   1.00000000
* f-type functions
    2    2
          5.87100000
          1.49800000
   1.00000000   0.00000000
   0.00000000   1.00000000
* g-type functions
    1    1
          4.36500000
   1.00000000
PP, Zn, 10, 3 ;
  1 ;
 2,     1.00000000,     0.00000000 ;
  2 ;
 2,    34.15000000,   399.98728200 ;
 2,    14.59000000,    85.48565500 ;
  2 ;
 2,    39.78000000,   277.14896000 ;
 2,    14.95000000,    69.05220500 ;
  2 ;
 2,    43.80000000,   -34.14934900 ;
 2,    14.98000000,    -3.29183100 ;
Spectral Representation Operator
End of Spectral Representation Operator

/Ga.Stuttgart.Leininger.4s4p.2s2p.ECP.3el.
T. Leininger, A. Bergning, A. Nicklass, H. Stoll, H.-J. Werner, H.-J. Flad. Chem. Phys. 217 (1997) 19-27. doi:10.1016/s0301-0104(97)00043-8
GALLIUM (4s,4p) -> [2s,2p]
     3.0   1
* s-type functions
    4    2
          3.48477500
          1.68583500
          0.17854200
          0.06781400
   0.11439400   0.00000000
  -0.36013100   0.00000000
   0.69379900   0.00000000
   0.00000000   1.00000000
* p-type functions
    4    2
          1.28323100
          0.47616300
          0.15562100
          0.05429400
   0.10283400   0.00000000
  -0.14088600   0.00000000
  -0.47731500   0.00000000
   0.00000000   1.00000000
PP, Ga, 28, 4 ;
  1 ;
 2,     1.00000000,     0.00000000 ;
  1 ;
 2,     5.21596000,   203.85397200 ;
  1 ;
 2,     4.30890400,   156.10339000 ;
  1 ;
 2,     0.49635700,     1.03164700 ;
  1 ;
 2,     1.71517000,   -10.67373500 ;
Spectral Representation Operator
End of Spectral Representation Operator

/Ge.Stuttgart.Bergner.4s4p.2s2p.ECP.4el.
A. Bergner, M. Dolg, W. Kuchle, H. Stoll, H. Preuss. Mol. Phys. 80 (1993) 1431-1441. doi:10.1080/00268979300103121
GERMANIUM (4s,4p) -> [2s,2p]
     4.0   1
* s-type functions
    4    2
          3.23125300
          1.94754500
          0.23232000
          0.08666900
   0.22218000   0.00000000
  -0.50661600   0.00000000
   0.70884500   0.00000000
   0.00000000   1.00000000
* p-type functions
    4    2
          1.22780500
          0.75685600
          0.20434700
          0.06779200
   0.22395000   0.00000000
  -0.22913400   0.00000000
  -0.57641400   0.00000000
   0.00000000   1.00000000
PP, Ge, 28, 4 ;
  1 ;
 2,     1.00000000,     0.00000000 ;
  1 ;
 2,     4.81540900,   149.24657900 ;
  1 ;
 2,     4.16951500,   132.84433500 ;
  1 ;
 2,     0.59195800,     1.34615400 ;
  1 ;
 2,     1.79177000,    -7.04422300 ;
Spectral Representation Operator
End of Spectral Representation Operator

/As.Stuttgart.Bergner.4s4p.2s2p.ECP.5el.
A. Bergner, M. Dolg, W. Kuchle, H. Stoll, H. Preuss. Mol. Phys. 80 (1993) 1431-1441. doi:10.1080/00268979300103121
ARSENIC (4s,4p) -> [2s,2p]
     5.0   1
* s-type functions
    4    2
          3.43147400
          1.89686600
          0.29444900
          0.11189600
   0.14816600   0.00000000
  -0.44989000   0.00000000
   0.69568200   0.00000000
   0.00000000   1.00000000
* p-type functions
    4    2
          1.29644700
          0.94997100
          0.25442100
          0.08759300
  -0.36995400   0.00000000
   0.37321400   0.00000000
   0.60030400   0.00000000
   0.00000000   1.00000000
PP, As, 28, 4 ;
  1 ;
 2,     1.00000000,     0.00000000 ;
  1 ;
 2,     3.61262500,    53.96562000 ;
  1 ;
 2,     3.90792600,    88.94908800 ;
  1 ;
 2,     1.92646700,    22.42028800 ;
  1 ;
 2,     1.77343400,    -4.70481500 ;
Spectral Representation Operator
End of Spectral Representation Operator

/Se.Stuttgart.Bergner.4s5p.2s3p.ECP.6el.
A. Bergner, M. Dolg, W. Kuchle, H. Stoll, H. Preuss. Mol. Phys. 80 (1993) 1431-1441. doi:10.1080/00268979300103121
SELENIUM (4s,5p) -> [2s,3p]
     6.0   1
* s-type functions
    4    2
          3.58818000
          2.23971100
          0.34377300
          0.13139900
   0.24963000   0.00000000
  -0.58146000   0.00000000
   0.72893800   0.00000000
   0.00000000   1.00000000
* p-type functions
    5    3
          1.50942700
          0.87510600
          0.29082600
          0.10022100
          0.03251600
   0.19527100   0.00000000   0.00000000
  -0.25391500   0.00000000   0.00000000
  -0.59048700   0.00000000   0.00000000
   0.00000000   1.00000000   0.00000000
   0.00000000   0.00000000   1.00000000
PP, Se, 28, 4 ;
  1 ;
 2,     1.00000000,     0.00000000 ;
  1 ;
 2,     4.23705700,    79.66334500 ;
  1 ;
 2,     2.91033400,    31.56099300 ;
  1 ;
 2,     2.33570100,    30.80461000 ;
  1 ;
 2,     2.25463900,    -6.54687500 ;
Spectral Representation Operator
End of Spectral Representation Operator

/Br.Stuttgart.Bergner.4s5p.2s3p.ECP.7el.
A. Bergner, M. Dolg, W. Kuchle, H. Stoll, H. Preuss. Mol. Phys. 80 (1993) 1431-1441. doi:10.1080/00268979300103121
BROMINE (4s,5p) -> [2s,3p]
     7.0   1
* s-type functions
    4    2
          4.72188100
          2.25755500
          0.38960800
          0.14713400
   0.10729700   0.00000000
  -0.43380200   0.00000000
   0.77204300   0.00000000
   0.00000000   1.00000000
* p-type functions
    5    3
          1.89694200
          0.91089900
          0.31685500
          0.10950300
          0.03609700
  -0.17939500   0.00000000   0.00000000
   0.26372900   0.00000000   0.00000000
   0.60695200   0.00000000   0.00000000
   0.00000000   1.00000000   0.00000000
   0.00000000   0.00000000   1.00000000
PP, Br, 28, 4 ;
  1 ;
 2,     1.00000000,     0.00000000 ;
  2 ;
 2,     5.02180000,    61.51372100 ;
 2,     2.51090000,     9.02149300 ;
  2 ;
 2,     4.28140000,    53.87586400 ;
 2,     2.14070000,     4.62940200 ;
  2 ;
 2,     2.88000000,    20.84967700 ;
 2,     1.44000000,     2.96544400 ;
  1 ;
 2,     2.72070000,    -8.16149300 ;
Spectral Representation Operator
End of Spectral Representation Operator

/Kr.Stuttgart.Nicklass.6s6p3d1f.4s4p3d1f.ECP.8el.
A. Nicklass, M. Dolg, H. Stoll, H. Preuss. J. Chem. Phys. 102 (1995) 8942-8952. doi:10.1063/1.468948
KRYPTON (6s,6p,3d,1f) -> [4s,4p,3d,1f]
     8.0   3
* s-type functions
    6    4
         35.40296100
         15.66508900
          6.24771100
          2.39424600
          0.45348900
          0.17215800
   0.02049500   0.00000000   0.00000000   0.00000000
  -0.09918800   0.00000000   0.00000000   0.00000000
   1.07205100   0.00000000   0.00000000   0.00000000
   0.00000000   1.00000000   0.00000000   0.00000000
   0.00000000   0.00000000   1.00000000   0.00000000
   0.00000000   0.00000000   0.00000000   1.00000000
* p-type functions
    6    4
         23.02908500
          9.50309200
          2.84246100
          0.68929300
          0.28513600
          0.10878200
   0.00562500   0.00000000   0.00000000   0.00000000
  -0.07505100   0.00000000   0.00000000   0.00000000
   1.04568900   0.00000000   0.00000000   0.00000000
   0.00000000   1.00000000   0.00000000   0.00000000
   0.00000000   0.00000000   1.00000000   0.00000000
   0.00000000   0.00000000   0.00000000   1.00000000
* d-type functions
    3    3
          0.73790000
          0.32250000
          0.14090000
   1.00000000   0.00000000   0.00000000
   0.00000000   1.00000000   0.00000000
   0.00000000   0.00000000   1.00000000
* f-type functions
    1    1
          0.70520000
   1.00000000
PP, Kr, 28, 5 ;
  1 ;
 2,     1.00000000,     0.00000000 ;
  2 ;
 2,     5.87771800,    73.91569390 ;
 2,     3.08462200,    16.16825080 ;
  2 ;
 2,     5.16411000,    58.51769101 ;
 2,     2.35830200,     8.25910073 ;
  2 ;
 2,     3.21536200,    33.45822776 ;
 2,     1.28500800,     0.67725331 ;
  2 ;
 2,     4.08286900,   -15.15869859 ;
 2,     1.19396000,    -0.17408825 ;
  1 ;
 2,     3.18077500,    -6.83315877 ;
Spectral Representation Operator
End of Spectral Representation Operator

/Rb.Stuttgart.Leininger.7s6p.5s4p.ECP.9el.
T. Leininger, A. Nicklass, W. Kuchle, H. Stoll, M. Dolg, A. Bergner. Chem. Phys. Lett. 255 (1996) 274-280 doi:10.1016/0009-2614(96)00382-x
RUBIDIUM (7s,6p) -> [5s,4p]
     9.0   1
* s-type functions
    7    5
          4.72746100
          2.93082500
          0.60184900
          0.46624400
          0.24646300
          0.05337900
          0.02101800
   0.28132900   0.00000000   0.00000000   0.00000000   0.00000000
  -0.67489200   0.00000000   0.00000000   0.00000000   0.00000000
   0.45877900   0.00000000   0.00000000   0.00000000   0.00000000
   0.00000000   1.00000000   0.00000000   0.00000000   0.00000000
   0.00000000   0.00000000   1.00000000   0.00000000   0.00000000
   0.00000000   0.00000000   0.00000000   1.00000000   0.00000000
   0.00000000   0.00000000   0.00000000   0.00000000   1.00000000
* p-type functions
    6    4
          5.60847000
          3.45272700
          0.75437400
          0.32797400
          0.14179700
          0.02050600
   0.04980500   0.00000000   0.00000000   0.00000000
  -0.16644100   0.00000000   0.00000000   0.00000000
   0.43483400   0.00000000   0.00000000   0.00000000
   0.00000000   1.00000000   0.00000000   0.00000000
   0.00000000   0.00000000   1.00000000   0.00000000
   0.00000000   0.00000000   0.00000000   1.00000000
PP, Rb, 28, 4 ;
  1 ;
 2,     1.00000000,     0.00000000 ;
  2 ;
 2,     5.03655181,    89.50019822 ;
 2,     1.97084963,     0.49376198 ;
  2 ;
 2,     4.25834119,    58.56897492 ;
 2,     1.47070961,     0.43179108 ;
  2 ;
 2,     3.02312774,    26.22489809 ;
 2,     0.65038346,     0.96283950 ;
  1 ;
 2,     3.84311471,   -12.31690065 ;
Spectral Representation Operator
End of Spectral Representation Operator

/Sr.Stuttgart.Kaupp.6s6p5d.4s4p2d.ECP.10el.
M. Kaupp, P.v.R. Schleyer, H. Stoll, H. Preuss. J. Chem. Phys. 94 (1991) 1360-1366. doi:10.1063/1.459993
STRONTIUM (6s,6p,5d) -> [4s,4p,2d]
    10.0   2
* s-type functions
    6    4
          5.87915700
          3.09248200
          0.64466700
          0.29887600
          0.05727600
          0.02387000
   0.19670900   0.00000000   0.00000000   0.00000000
  -0.62589800   0.00000000   0.00000000   0.00000000
   0.73572300   0.00000000   0.00000000   0.00000000
   0.00000000   1.00000000   0.00000000   0.00000000
   0.00000000   0.00000000   1.00000000   0.00000000
   0.00000000   0.00000000   0.00000000   1.00000000
* p-type functions
    6    4
          2.43247200
          1.66423400
          0.56998900
          0.22071800
          0.06762900
          0.02672700
  -0.37489900   0.00000000   0.00000000   0.00000000
   0.38761500   0.00000000   0.00000000   0.00000000
   0.65583800   0.00000000   0.00000000   0.00000000
   0.00000000   1.00000000   0.00000000   0.00000000
   0.00000000   0.00000000   1.00000000   0.00000000
   0.00000000   0.00000000   0.00000000   1.00000000
* d-type functions
    5    2
          3.61808100
          0.99665600
          0.39073500
          0.12277000
          0.03665500
  -0.00750100   0.00000000
   0.10809800   0.00000000
   0.27854000   0.00000000
   0.00000000   0.47731800
   0.00000000   0.44818300
PP, Sr, 28, 4 ;
  1 ;
 2,     1.00000000,     0.00000000 ;
  2 ;
 2,     7.40007400,   135.47943000 ;
 2,     3.60637900,    17.53446300 ;
  2 ;
 2,     6.48486800,    88.35970900 ;
 2,     3.28805300,    15.39437200 ;
  2 ;
 2,     4.62284100,    29.88898700 ;
 2,     2.24690400,     6.65941400 ;
  1 ;
 2,     4.63397500,   -15.80599200 ;
Spectral Representation Operator
End of Spectral Representation Operator

/Y.Stuttgart.Andrae.8s7p6d2f1g.6s5p3d2f1g.ECP.11el.
D. Andrae, U. Haussermann, M. Dolg, H. Stoll, H. Preuss. Theor. Chim. Acta 77 (1990) 123-141. doi:10.1007/bf01114537
YTTRIUM (8s,7p,6d,2f,1g) -> [6s,5p,3d,2f,1g]
    11.0   4
* s-type functions
    8    6
          5.13295800
          4.24019200
          1.29828000
          0.83211300
          0.34990500
          0.06655100
          0.02865900
          0.01000000
  -1.38751070   0.00000000   0.00000000   0.00000000   0.00000000   0.00000000
   1.94451280   0.00000000   0.00000000   0.00000000   0.00000000   0.00000000
   0.44164340   0.00000000   0.00000000   0.00000000   0.00000000   0.00000000
   0.00000000   1.00000000   0.00000000   0.00000000   0.00000000   0.00000000
   0.00000000   0.00000000   1.00000000   0.00000000   0.00000000   0.00000000
   0.00000000   0.00000000   0.00000000   1.00000000   0.00000000   0.00000000
   0.00000000   0.00000000   0.00000000   0.00000000   1.00000000   0.00000000
   0.00000000   0.00000000   0.00000000   0.00000000   0.00000000   1.00000000
* p-type functions
    7    5
          2.72792000
          1.97905000
          0.87347600
          0.44106700
          0.18381500
          0.06056700
          0.02223600
  -3.58418460   0.00000000   0.00000000   0.00000000   0.00000000
   3.02120570   0.00000000   0.00000000   0.00000000   0.00000000
   0.00000000   0.46385860   0.00000000   0.00000000   0.00000000
   0.00000000   0.57085540   0.00000000   0.00000000   0.00000000
   0.00000000   0.00000000   1.00000000   0.00000000   0.00000000
   0.00000000   0.00000000   0.00000000   1.00000000   0.00000000
   0.00000000   0.00000000   0.00000000   0.00000000   1.00000000
* d-type functions
    6    3
          2.90070900
          2.09979200
          0.61825200
          0.20018400
          0.06118900
          0.02000000
  -0.08382050   0.00000000   0.00000000
   0.15258700   0.00000000   0.00000000
   0.47926810   0.00000000   0.00000000
   0.60075040   0.00000000   0.00000000
   0.00000000   1.00000000   0.00000000
   0.00000000   0.00000000   1.00000000
* f-type functions
    2    2
          0.54600000
          0.14400000
   1.00000000   0.00000000
   0.00000000   1.00000000
* g-type functions
    1    1
          0.24900000
   1.00000000
PP, Y, 28, 4 ;
  1 ;
 2,     1.00000000,     0.00000000 ;
  2 ;
 2,     7.48804900,   135.15384400 ;
 2,     3.74402500,    15.55244100 ;
  2 ;
 2,     6.44537700,    87.78499200 ;
 2,     3.22268900,    11.56406600 ;
  2 ;
 2,     4.65844700,    29.70100100 ;
 2,     2.32922400,     5.53996800 ;
  2 ;
 2,     6.58421200,   -19.12219800 ;
 2,     3.29210600,    -2.43637500 ;
Spectral Representation Operator
End of Spectral Representation Operator

/Zr.Stuttgart.Andrae.8s7p6d2f1g.6s5p3d2f1g.ECP.12el.
D. Andrae, U. Haussermann, M. Dolg, H. Stoll, H. Preuss. Theor. Chim. Acta 77 (1990) 123-141. doi:10.1007/bf01114537
ZIRCONIUM (8s,7p,6d,2f,1g) -> [6s,5p,3d,2f,1g]
    12.0   4
* s-type functions
    8    6
          5.87378900
          4.28727000
          1.46413700
          0.83124500
          0.36233500
          0.07935700
          0.03392000
          0.01100000
  -0.97366300   0.00000000   0.00000000   0.00000000   0.00000000   0.00000000
   1.70918220   0.00000000   0.00000000   0.00000000   0.00000000   0.00000000
   0.24383100   0.00000000   0.00000000   0.00000000   0.00000000   0.00000000
   0.00000000   1.00000000   0.00000000   0.00000000   0.00000000   0.00000000
   0.00000000   0.00000000   1.00000000   0.00000000   0.00000000   0.00000000
   0.00000000   0.00000000   0.00000000   1.00000000   0.00000000   0.00000000
   0.00000000   0.00000000   0.00000000   0.00000000   1.00000000   0.00000000
   0.00000000   0.00000000   0.00000000   0.00000000   0.00000000   1.00000000
* p-type functions
    7    5
          2.87422400
          2.11990100
          0.85136400
          0.43729200
          0.20290400
          0.06325900
          0.02252300
  -4.21810130   0.00000000   0.00000000   0.00000000   0.00000000
   4.04794310   0.00000000   0.00000000   0.00000000   0.00000000
   0.00000000   0.57094510   0.00000000   0.00000000   0.00000000
   0.00000000   0.46210800   0.00000000   0.00000000   0.00000000
   0.00000000   0.00000000   1.00000000   0.00000000   0.00000000
   0.00000000   0.00000000   0.00000000   1.00000000   0.00000000
   0.00000000   0.00000000   0.00000000   0.00000000   1.00000000
* d-type functions
    6    3
          2.58013700
          1.85539600
          0.68075400
          0.25669100
          0.08940000
          0.03000000
  -0.09321310   0.00000000   0.00000000
   0.22135700   0.00000000   0.00000000
   0.46844270   0.00000000   0.00000000
   0.53919500   0.00000000   0.00000000
   0.00000000   1.00000000   0.00000000
   0.00000000   0.00000000   1.00000000
* f-type functions
    2    2
          0.88300000
          0.23600000
   1.00000000   0.00000000
   0.00000000   1.00000000
* g-type functions
    1    1
          0.54700000
   1.00000000
PP, Zr, 28, 4 ;
  1 ;
 2,     1.00000000,     0.00000000 ;
  2 ;
 2,     8.20000000,   150.26759100 ;
 2,     4.08972800,    18.97621600 ;
  2 ;
 2,     7.11000000,    99.62212400 ;
 2,     3.59679800,    14.16873300 ;
  2 ;
 2,     5.35000000,    35.04512400 ;
 2,     2.49182100,     6.11125900 ;
  2 ;
 2,     7.54000000,   -21.09377600 ;
 2,     3.77000000,    -3.08069400 ;
Spectral Representation Operator
End of Spectral Representation Operator

/Nb.Stuttgart.Andrae.8s7p6d2f1g.6s5p3d2f1g.ECP.13el.
D. Andrae, U. Haussermann, M. Dolg, H. Stoll, H. Preuss. Theor. Chim. Acta 77 (1990) 123-141. doi:10.1007/bf01114537
NIOBIUM (8s,7p,6d,2f,1g) -> [6s,5p,3d,2f,1g]
    13.0   4
* s-type functions
    8    6
          6.56630100
          4.58643800
          3.75377000
          0.88987100
          0.40713800
          0.09427100
          0.03987900
          0.01100000
  -0.85826540   0.00000000   0.00000000   0.00000000   0.00000000   0.00000000
   1.30416720   0.00000000   0.00000000   0.00000000   0.00000000   0.00000000
   0.50690430   0.00000000   0.00000000   0.00000000   0.00000000   0.00000000
   0.00000000   1.00000000   0.00000000   0.00000000   0.00000000   0.00000000
   0.00000000   0.00000000   1.00000000   0.00000000   0.00000000   0.00000000
   0.00000000   0.00000000   0.00000000   1.00000000   0.00000000   0.00000000
   0.00000000   0.00000000   0.00000000   0.00000000   1.00000000   0.00000000
   0.00000000   0.00000000   0.00000000   0.00000000   0.00000000   1.00000000
* p-type functions
    7    5
          3.07006300
          2.23796400
          0.85225500
          0.50443600
          0.26680000
          0.06873200
          0.02344400
  -3.90443150   0.00000000   0.00000000   0.00000000   0.00000000
   4.06880700   0.00000000   0.00000000   0.00000000   0.00000000
   0.00000000   0.67139100   0.00000000   0.00000000   0.00000000
   0.00000000   0.34743650   0.00000000   0.00000000   0.00000000
   0.00000000   0.00000000   1.00000000   0.00000000   0.00000000
   0.00000000   0.00000000   0.00000000   1.00000000   0.00000000
   0.00000000   0.00000000   0.00000000   0.00000000   1.00000000
* d-type functions
    6    3
          4.05356300
          1.65260000
          0.70685900
          0.28636700
          0.10875700
          0.03300000
  -0.02042010   0.00000000   0.00000000
   0.20898540   0.00000000   0.00000000
   0.47055150   0.00000000   0.00000000
   0.47588600   0.00000000   0.00000000
   0.00000000   1.00000000   0.00000000
   0.00000000   0.00000000   1.00000000
* f-type functions
    2    2
          0.97000000
          0.26100000
   1.00000000   0.00000000
   0.00000000   1.00000000
* g-type functions
    1    1
          0.53600000
   1.00000000
PP, Nb, 28, 4 ;
  1 ;
 2,     1.00000000,     0.00000000 ;
  2 ;
 2,     8.90000000,   165.17914300 ;
 2,     4.43000000,    21.99297400 ;
  2 ;
 2,     7.77000000,   111.79441400 ;
 2,     3.96000000,    16.63348300 ;
  2 ;
 2,     6.05000000,    38.11224900 ;
 2,     2.84000000,     8.03916700 ;
  2 ;
 2,     8.49000000,   -22.92955000 ;
 2,     4.25000000,    -3.66631000 ;
Spectral Representation Operator
End of Spectral Representation Operator

/Mo.Stuttgart.Andrae.8s7p6d2f1g.6s5p3d2f1g.ECP.14el.
D. Andrae, U. Haussermann, M. Dolg, H. Stoll, H. Preuss. Theor. Chim. Acta 77 (1990) 123-141. doi:10.1007/bf01114537
MOLYBDENUM (8s,7p,6d,2f,1g) -> [6s,5p,3d,2f,1g]
    14.0   4
* s-type functions
    8    6
          7.20338000
          5.05229500
          2.91353300
          1.02899300
          0.46953400
          0.11001400
          0.04611500
          0.01500000
  -0.82629730   0.00000000   0.00000000   0.00000000   0.00000000   0.00000000
   1.46756160   0.00000000   0.00000000   0.00000000   0.00000000   0.00000000
   0.31895490   0.00000000   0.00000000   0.00000000   0.00000000   0.00000000
   0.00000000   1.00000000   0.00000000   0.00000000   0.00000000   0.00000000
   0.00000000   0.00000000   1.00000000   0.00000000   0.00000000   0.00000000
   0.00000000   0.00000000   0.00000000   1.00000000   0.00000000   0.00000000
   0.00000000   0.00000000   0.00000000   0.00000000   1.00000000   0.00000000
   0.00000000   0.00000000   0.00000000   0.00000000   0.00000000   1.00000000
* p-type functions
    7    5
          3.15186600
          2.45348200
          0.87877300
          0.49079100
          0.28471400
          0.07118200
          0.02360700
  -4.73814350   0.00000000   0.00000000   0.00000000   0.00000000
   5.01904000   0.00000000   0.00000000   0.00000000   0.00000000
   0.00000000   0.74936290   0.00000000   0.00000000   0.00000000
   0.00000000   0.27056970   0.00000000   0.00000000   0.00000000
   0.00000000   0.00000000   1.00000000   0.00000000   0.00000000
   0.00000000   0.00000000   0.00000000   1.00000000   0.00000000
   0.00000000   0.00000000   0.00000000   0.00000000   1.00000000
* d-type functions
    6    3
          5.03477000
          1.80214900
          0.80725000
          0.33900500
          0.12834200
          0.04300000
  -0.02394300   0.00000000   0.00000000
   0.21945760   0.00000000   0.00000000
   0.46117140   0.00000000   0.00000000
   0.46712100   0.00000000   0.00000000
   0.00000000   1.00000000   0.00000000
   0.00000000   0.00000000   1.00000000
* f-type functions
    2    2
          1.22300000
          0.33800000
   1.00000000   0.00000000
   0.00000000   1.00000000
* g-type functions
    1    1
          0.74400000
   1.00000000
PP, Mo, 28, 4 ;
  1 ;
 2,     1.00000000,     0.00000000 ;
  2 ;
 2,     9.71459400,   180.10310800 ;
 2,     4.68050000,    24.99722800 ;
  2 ;
 2,     8.14213700,   123.77275200 ;
 2,     4.62598600,    19.53022800 ;
  2 ;
 2,     6.61841500,    48.37502200 ;
 2,     3.24875200,     8.89205300 ;
  2 ;
 2,     9.45000000,   -24.80517700 ;
 2,     4.72000000,    -4.15378200 ;
Spectral Representation Operator
End of Spectral Representation Operator

/Tc.Stuttgart.Andrae.8s7p6d2f1g.6s5p3d2f1g.ECP.15el.
D. Andrae, U. Haussermann, M. Dolg, H. Stoll, H. Preuss. Theor. Chim. Acta 77 (1990) 123-141. doi:10.1007/bf01114537
TECHNETIUM (8s,7p,6d,2f,1g) -> [6s,5p,3d,2f,1g]
    15.0   4
* s-type functions
    8    6
          7.43440200
          5.55132700
          3.02308600
          1.08466900
          0.49258500
          0.11389600
          0.04688700
          0.01600000
  -1.11251800   0.00000000   0.00000000   0.00000000   0.00000000   0.00000000
   1.81449980   0.00000000   0.00000000   0.00000000   0.00000000   0.00000000
   0.25692920   0.00000000   0.00000000   0.00000000   0.00000000   0.00000000
   0.00000000   1.00000000   0.00000000   0.00000000   0.00000000   0.00000000
   0.00000000   0.00000000   1.00000000   0.00000000   0.00000000   0.00000000
   0.00000000   0.00000000   0.00000000   1.00000000   0.00000000   0.00000000
   0.00000000   0.00000000   0.00000000   0.00000000   1.00000000   0.00000000
   0.00000000   0.00000000   0.00000000   0.00000000   0.00000000   1.00000000
* p-type functions
    7    5
          3.44900500
          2.69273700
          0.95948400
          0.48521300
          0.28149000
          0.06837100
          0.02261300
  -4.81613810   0.00000000   0.00000000   0.00000000   0.00000000
   5.08660540   0.00000000   0.00000000   0.00000000   0.00000000
   0.00000000   0.74490720   0.00000000   0.00000000   0.00000000
   0.00000000   0.28268630   0.00000000   0.00000000   0.00000000
   0.00000000   0.00000000   1.00000000   0.00000000   0.00000000
   0.00000000   0.00000000   0.00000000   1.00000000   0.00000000
   0.00000000   0.00000000   0.00000000   0.00000000   1.00000000
* d-type functions
    6    3
          5.12226800
          1.95401500
          0.85475600
          0.36058100
          0.14127500
          0.04700000
  -0.03323760   0.00000000   0.00000000
   0.24673870   0.00000000   0.00000000
   0.48023800   0.00000000   0.00000000
   0.42886640   0.00000000   0.00000000
   0.00000000   1.00000000   0.00000000
   0.00000000   0.00000000   1.00000000
* f-type functions
    2    2
          1.43000000
          0.39800000
   1.00000000   0.00000000
   0.00000000   1.00000000
* g-type functions
    1    1
          0.91800000
   1.00000000
PP, Tc, 28, 4 ;
  1 ;
 2,     1.00000000,     0.00000000 ;
  2 ;
 2,    10.42234600,   195.15916600 ;
 2,     5.03651600,    28.09260300 ;
  2 ;
 2,     8.95044900,   135.28456600 ;
 2,     4.85443900,    21.80650400 ;
  2 ;
 2,     6.94569700,    54.32972900 ;
 2,     3.97058500,    11.15506800 ;
  2 ;
 2,    10.40000000,   -26.56244700 ;
 2,     5.20000000,    -4.58568100 ;
Spectral Representation Operator
End of Spectral Representation Operator

/Ru.Stuttgart.Andrae.8s7p6d2f1g.6s5p3d2f1g.ECP.16el.
D. Andrae, U. Haussermann, M. Dolg, H. Stoll, H. Preuss. Theor. Chim. Acta 77 (1990) 123-141. doi:10.1007/bf01114537
RUTHENIUM (8s,7p,6d,2f,1g) -> [6s,5p,3d,2f,1g]
    16.0   4
* s-type functions
    8    6
          7.93657000
          5.98424500
          4.88222000
          1.14462400
          0.52301700
          0.11757300
          0.04805000
          0.01600000
  -1.11966560   0.00000000   0.00000000   0.00000000   0.00000000   0.00000000
   1.44532930   0.00000000   0.00000000   0.00000000   0.00000000   0.00000000
   0.62616530   0.00000000   0.00000000   0.00000000   0.00000000   0.00000000
   0.00000000   1.00000000   0.00000000   0.00000000   0.00000000   0.00000000
   0.00000000   0.00000000   1.00000000   0.00000000   0.00000000   0.00000000
   0.00000000   0.00000000   0.00000000   1.00000000   0.00000000   0.00000000
   0.00000000   0.00000000   0.00000000   0.00000000   1.00000000   0.00000000
   0.00000000   0.00000000   0.00000000   0.00000000   0.00000000   1.00000000
* p-type functions
    7    5
          3.75460900
          2.91657100
          1.04867500
          0.50732000
          0.26739800
          0.06974800
          0.02292700
  -4.72265650   0.00000000   0.00000000   0.00000000   0.00000000
   4.99090840   0.00000000   0.00000000   0.00000000   0.00000000
   0.00000000   0.72854670   0.00000000   0.00000000   0.00000000
   0.00000000   0.30390430   0.00000000   0.00000000   0.00000000
   0.00000000   0.00000000   1.00000000   0.00000000   0.00000000
   0.00000000   0.00000000   0.00000000   1.00000000   0.00000000
   0.00000000   0.00000000   0.00000000   0.00000000   1.00000000
* d-type functions
    6    3
          6.00991300
          2.10428000
          0.92150000
          0.38859800
          0.15283600
          0.05100000
  -0.03271600   0.00000000   0.00000000
   0.26573920   0.00000000   0.00000000
   0.48123980   0.00000000   0.00000000
   0.40997780   0.00000000   0.00000000
   0.00000000   1.00000000   0.00000000
   0.00000000   0.00000000   1.00000000
* f-type functions
    2    2
          1.66600000
          0.47800000
   1.00000000   0.00000000
   0.00000000   1.00000000
* g-type functions
    1    1
          1.05700000
   1.00000000
PP, Ru, 28, 4 ;
  1 ;
 2,     1.00000000,     0.00000000 ;
  2 ;
 2,    11.10526900,   209.82297100 ;
 2,     5.41474500,    30.65472600 ;
  2 ;
 2,     9.77127100,   146.33618200 ;
 2,     5.07399100,    24.12787700 ;
  2 ;
 2,     7.67142300,    67.51589700 ;
 2,     4.13656500,     9.87010400 ;
  2 ;
 2,    11.36000000,   -28.34061600 ;
 2,     5.68000000,    -4.94462900 ;
Spectral Representation Operator
End of Spectral Representation Operator

/Rh.Stuttgart.Andrae.8s7p6d2f1g.6s5p3d2f1g.ECP.17el.
D. Andrae, U. Haussermann, M. Dolg, H. Stoll, H. Preuss. Theor. Chim. Acta 77 (1990) 123-141. doi:10.1007/bf01114537
RHODIUM (8s,7p,6d,2f,1g) -> [6s,5p,3d,2f,1g]
    17.0   4
* s-type functions
    8    6
          7.91774400
          6.84120700
          2.95984000
          1.33434100
          0.59881000
          0.12189400
          0.04945200
          0.01600000
  -2.41557750   0.00000000   0.00000000   0.00000000   0.00000000   0.00000000
   3.09873820   0.00000000   0.00000000   0.00000000   0.00000000   0.00000000
   0.28212560   0.00000000   0.00000000   0.00000000   0.00000000   0.00000000
   0.00000000   1.00000000   0.00000000   0.00000000   0.00000000   0.00000000
   0.00000000   0.00000000   1.00000000   0.00000000   0.00000000   0.00000000
   0.00000000   0.00000000   0.00000000   1.00000000   0.00000000   0.00000000
   0.00000000   0.00000000   0.00000000   0.00000000   1.00000000   0.00000000
   0.00000000   0.00000000   0.00000000   0.00000000   0.00000000   1.00000000
* p-type functions
    7    5
          4.13607900
          2.94628100
          1.12230400
          0.66617700
          0.36574300
          0.07668600
          0.02417000
  -3.34435450   0.00000000   0.00000000   0.00000000   0.00000000
   3.70374400   0.00000000   0.00000000   0.00000000   0.00000000
   0.00000000   0.74622580   0.00000000   0.00000000   0.00000000
   0.00000000   0.26988330   0.00000000   0.00000000   0.00000000
   0.00000000   0.00000000   1.00000000   0.00000000   0.00000000
   0.00000000   0.00000000   0.00000000   1.00000000   0.00000000
   0.00000000   0.00000000   0.00000000   0.00000000   1.00000000
* d-type functions
    6    3
          7.03289200
          2.30981900
          0.99822800
          0.41705700
          0.16444700
          0.05500000
  -0.01616040   0.00000000   0.00000000
   0.27639870   0.00000000   0.00000000
   0.48500260   0.00000000   0.00000000
   0.39301990   0.00000000   0.00000000
   0.00000000   1.00000000   0.00000000
   0.00000000   0.00000000   1.00000000
* f-type functions
    2    2
          1.98900000
          0.56700000
   1.00000000   0.00000000
   0.00000000   1.00000000
* g-type functions
    1    1
          1.23600000
   1.00000000
PP, Rh, 28, 4 ;
  1 ;
 2,     1.00000000,     0.00000000 ;
  2 ;
 2,    11.72000000,   225.34775400 ;
 2,     5.82000000,    32.82318900 ;
  2 ;
 2,    10.42000000,   158.70941200 ;
 2,     5.45000000,    26.44410000 ;
  2 ;
 2,     8.82000000,    62.75862600 ;
 2,     3.87000000,    10.97871900 ;
  2 ;
 2,    12.31000000,   -30.09345600 ;
 2,     6.16000000,    -5.21848200 ;
Spectral Representation Operator
End of Spectral Representation Operator

/Pd.Stuttgart.Andrae.8s7p6d2f1g.6s5p3d2f1g.ECP.18el.
D. Andrae, U. Haussermann, M. Dolg, H. Stoll, H. Preuss. Theor. Chim. Acta 77 (1990) 123-141. doi:10.1007/bf01114537
PALLADIUM (8s,7p,6d,2f,1g) -> [6s,5p,3d,2f,1g]
    18.0   4
* s-type functions
    8    6
          8.47564000
          7.16571700
          3.18211000
          1.40635700
          0.62392100
          0.12330300
          0.04936000
          0.01600000
  -2.16424970   0.00000000   0.00000000   0.00000000   0.00000000   0.00000000
   2.89282860   0.00000000   0.00000000   0.00000000   0.00000000   0.00000000
   0.23395640   0.00000000   0.00000000   0.00000000   0.00000000   0.00000000
   0.00000000   1.00000000   0.00000000   0.00000000   0.00000000   0.00000000
   0.00000000   0.00000000   1.00000000   0.00000000   0.00000000   0.00000000
   0.00000000   0.00000000   0.00000000   1.00000000   0.00000000   0.00000000
   0.00000000   0.00000000   0.00000000   0.00000000   1.00000000   0.00000000
   0.00000000   0.00000000   0.00000000   0.00000000   0.00000000   1.00000000
* p-type functions
    7    5
          4.24609700
          3.39259400
          1.21618500
          0.63962400
          0.37265700
          0.07917500
          0.02475400
  -5.25030250   0.00000000   0.00000000   0.00000000   0.00000000
   5.55278500   0.00000000   0.00000000   0.00000000   0.00000000
   0.00000000   0.75773150   0.00000000   0.00000000   0.00000000
[...]
  -0.25869500   0.10569500  -0.04055800   0.12508000   0.21760300  -0.04365400
   0.83258300  -0.41803400   0.16784400  -0.46075200  -0.64548400  -0.58312800
  -1.38509000   0.80701500  -0.33127000   0.91029800   1.21979800   1.80435300
   1.11395100  -1.07328000   0.46287300  -1.73906000  -3.11544000  -7.09850000
   0.39386500  -0.32572500   0.16724800   0.39376200   2.86308400  10.62777900
   0.01561200   0.89143800  -0.53806000   2.44417300   0.61365700  -8.52238500
  -0.00066300   0.47795500  -0.39874800  -1.93827300  -2.16194100   4.55525000
  -0.00005300   0.09638000   0.75192700  -0.70221500   2.53786500  -1.74282500
  -0.00020600   0.04625000   0.43812800   1.07294300  -1.81968300   0.91814700
* p-type functions
   13    6
       3521.87160000
        810.45767000
        248.29427000
         86.10761900
         26.90154800
         15.42684300
          9.03341800
          4.00755500
          1.98423800
          0.76295800
          0.32011000
          0.10817100
          0.03226000
   0.00021200  -0.00017500   0.00017700   0.00027500  -0.00056000  -0.00066000
   0.00188700  -0.00153500   0.00160000   0.00261800  -0.00507300  -0.00374900
   0.00959000  -0.00797900   0.00803600   0.01250500  -0.02558900  -0.03058600
   0.02799000  -0.02286500   0.02410300   0.04008000  -0.07697800  -0.04784100
   0.05224400  -0.05082300   0.04714700   0.06370800  -0.16362900  -0.41346300
   0.04321600   0.02032200  -0.00900200   0.01103200   0.15759900   1.07683400
  -0.32215500   0.12001200  -0.13863000  -0.24121200   0.07006500  -1.59876100
   0.60625800  -0.48996000   0.61270900   1.20486700  -2.24542000   0.49919200
   0.56287000  -0.24006000   0.03751700  -0.73207600   3.39410600   0.99788000
   0.06644300   0.56175300  -1.05557400  -1.14470800  -2.49656200  -2.10743100
  -0.00527400   0.56873600   0.35222600   1.81367300   0.99601300   2.35863500
   0.00204300   0.08304100   0.74683600  -0.79361900   0.33870600  -1.93361700
  -0.00053100  -0.00366400   0.12082700  -0.38132100  -0.66576800   1.19950200
* d-type functions
   10    5
        531.13677000
        163.90523000
         63.74075900
         24.93100900
         10.46056400
          4.46242900
          2.22228000
          0.99425500
          0.28737500
          0.08266700
   0.00016300  -0.00008900   0.00021900   0.00002300  -0.00036100
   0.00132200  -0.00031700   0.00025500   0.00242700  -0.00262500
   0.00599500  -0.00307700   0.00722300   0.00244100  -0.01380000
   0.02253000  -0.00546900   0.00504800   0.03769000  -0.03952700
  -0.03782400   0.00228500   0.01261900  -0.09484000   0.09302700
   0.42637100  -0.15476600   0.24596600   0.89607200  -2.02862800
   0.51195200  -0.21588500   0.55289900  -0.46765700   3.14171400
   0.17570200   0.24711500  -1.07389500  -0.72982600  -2.03791600
   0.00745000   0.64054600  -0.04160600   1.14921400   0.87990600
  -0.00056400   0.38269700   0.70603000  -0.83402500  -0.41592500
* f-type functions
    8    4
        141.21837000
         48.16014200
         19.45335700
          7.80477900
          3.66372000
          1.66503400
          0.69113000
          0.24683400
   0.00048700  -0.00054300   0.00110500   0.00018300
   0.00497800  -0.00531900   0.00759800   0.01895900
   0.02650200  -0.02907900   0.05316500   0.03750200
   0.11254700  -0.12607500   0.20661900   0.44655000
   0.33933400  -0.37322500   0.61188100   0.42481500
   0.42160100  -0.21118700  -0.53439400  -1.54896400
   0.30638600   0.46340200  -0.59448300   1.51518700
   0.12219100   0.59029700   0.83957400  -0.75827900
* g-type functions
    6    3
        141.21837000
         48.16014200
         19.45335700
          7.80477900
          3.66372000
          1.66503400
  -0.00007800   0.00137300  -0.00322800
   0.00601400   0.00276300   0.04782300
   0.03150100   0.11495500   0.04862800
   0.16084300   0.18862600   1.35235900
   0.19600600   0.98537300  -1.60549200
   0.75233200  -0.98832200   0.68975800
PP, Bk, 60, 5 ;
  1 ;
 2,     1.00000000,     0.00000000 ;
  1 ;
 2,    20.28537610,   696.47512220 ;
  1 ;
 2,     9.86839647,   188.76026572 ;
  1 ;
 2,     8.91655740,   124.93583585 ;
  1 ;
 2,     7.02500314,    45.21650778 ;
  1 ;
 2,    15.99180528,   -72.61718880 ;
Spectral Representation Operator
End of Spectral Representation Operator

/Cf.Stuttgart.Cao.14s13p10d8f6g.6s6p5d4f3g.ECP.38el.
X. Cao, M. Dolg, H. Stoll. J. Chem. Phys. 118 (2003) 487-496. doi:10.1063/1.1521431
CALIFORNIUM (14s,13p,10d,8f,6g) -> [6s,6p,5d,4f,3g]
    38.0   4
* s-type functions
   14    6
      16647.37200000
       2623.89640000
        496.04100000
        134.88795000
         78.57156300
         45.95777400
         26.99699900
         13.70398300
          3.63499600
          1.87148100
          0.79435400
          0.34936200
          0.06819700
          0.02712000
   0.00002900  -0.00001600   0.00000700  -0.00001900  -0.00003300  -0.00004700
   0.00019200  -0.00012500   0.00005300  -0.00015400  -0.00023900  -0.00091100
   0.00095700  -0.00043100   0.00016600  -0.00048500  -0.00094300   0.00146200
  -0.00719500   0.00126400  -0.00030300   0.00043700   0.00254300  -0.06247200
   0.05585900  -0.01807700   0.00651600  -0.01433400  -0.02486000   0.23169300
  -0.28983000   0.12630800  -0.04992300   0.11870200   0.16073100  -0.34723400
   0.86082400  -0.43632900   0.17772200  -0.44211900  -0.57944100  -0.17326100
  -1.38029600   0.79843100  -0.33112900   0.86805800   1.17626700   1.43362300
   1.12542900  -1.06681800   0.46236300  -1.68599400  -3.14040100  -6.56079600
   0.37277600  -0.31571300   0.16803000   0.39303300   2.99020700  10.39916000
   0.01400500   0.87574800  -0.52853000   2.32098600   0.48331200  -8.66232800
  -0.00040400   0.49042800  -0.41393200  -1.79144800  -2.10318400   4.54433100
  -0.00011300   0.10061000   0.74213700  -0.80295100   2.46178600  -1.75263300
  -0.00018500   0.04968900   0.44638400   1.13176900  -1.75885800   0.92636200
* p-type functions
   13    6
       3773.81550000
        886.04241000
        282.28168000
        104.57599000
         41.70638200
         18.00706600
          7.48483400
          4.37711200
          2.03383600
          0.78708700
          0.32577200
          0.10944300
          0.03260500
   0.00042400  -0.00050900   0.00074200   0.00118600   0.00121500  -0.00124800
   0.00363500  -0.00426200   0.00625400   0.01001800   0.00999200  -0.00975300
   0.01738700  -0.02102200   0.03072000   0.04926100   0.05087400  -0.05311700
   0.04994000  -0.05844700   0.08634000   0.13921000   0.13890500  -0.13697800
   0.06460700  -0.08428000   0.12294100   0.19778100   0.21343500  -0.23292100
   0.08504800  -0.05802600   0.07525900   0.09655700   0.02658200   0.08557700
  -0.37008300   0.16231900  -0.13365400   0.06279900   0.66547700  -1.90497700
   0.53792500  -0.50165500   0.70661500   0.77933400  -0.37591700   4.01742700
   0.65612400  -0.25255100  -0.17702600  -1.18048300  -1.32229000  -3.05749400
   0.10160700   0.52285900  -0.94356800   0.05382000   2.35001700   1.18288800
  -0.00781100   0.56782500   0.49316900   1.06584500  -1.77941600   0.19127300
   0.00294700   0.08837700   0.62014300  -0.83562900   0.36469500  -0.93901100
  -0.00078600  -0.00378100   0.08116700  -0.21101800   0.46772900   0.85943900
* d-type functions
   10    5
        565.28153000
        171.50363000
         65.76304000
         25.87249600
         11.66813700
          4.67087900
          2.31525500
          1.03287100
          0.29131500
          0.08243500
   0.00017800  -0.00009400  -0.00025100   0.00014700  -0.00083900
   0.00151500  -0.00037200  -0.00049200   0.00298000  -0.00352500
   0.00694600  -0.00346100  -0.00899200   0.00734900  -0.03244500
   0.02487700  -0.00574000  -0.00650100   0.04396500  -0.03707700
  -0.02653300  -0.00189000  -0.02374500  -0.05510300  -0.06709500
   0.42980400  -0.15277300  -0.26187700   0.91690100  -1.70379900
   0.50573500  -0.20503800  -0.51773200  -0.59462800   2.87664800
   0.17129600   0.24663300   1.06705800  -0.59994400  -1.95538200
   0.00695100   0.64436700   0.02723000   1.08219900   0.88250000
  -0.00052100   0.38185500  -0.68960800  -0.81709600  -0.43675500
* f-type functions
    8    4
        134.74791000
         46.66218400
         19.30474100
          8.23248700
          3.82634700
          1.73969600
          0.72400300
          0.25970900
   0.00084200  -0.00103600   0.00197800   0.00186900
   0.00806000  -0.00985200   0.01638900   0.03719800
   0.03976700  -0.04919100   0.08828900   0.09673400
   0.13748700  -0.17021200   0.27956000   0.57356800
   0.34647000  -0.38207100   0.50252300  -0.00031100
   0.41012000  -0.14016000  -0.62702500  -1.19895700
   0.29254800   0.49113700  -0.44597200   1.42686800
   0.11515200   0.53892400   0.81890900  -0.78153300
* g-type functions
    6    3
        134.74791000
         46.66218400
         19.30474100
          8.23248700
          3.82634700
          1.73969600
  -0.00009300  -0.00139400   0.00239200
   0.00793700  -0.00742600  -0.05490200
   0.03404800  -0.12227700  -0.09525500
   0.16201000  -0.21944600  -1.17449900
   0.21744900  -0.85310800   1.49434100
   0.67831900   0.92844600  -0.67591500
PP, Cf, 60, 5 ;
  1 ;
 2,     1.00000000,     0.00000000 ;
  1 ;
 2,    22.27163201,   823.74657643 ;
  1 ;
 2,     8.80079915,   173.07043952 ;
  1 ;
 2,     9.31115746,   125.56875116 ;
  1 ;
 2,     6.62957784,    34.95259623 ;
  1 ;
 2,    16.66536973,   -75.12525493 ;
Spectral Representation Operator
End of Spectral Representation Operator

/Es.Stuttgart.Cao.14s13p10d8f6g.6s6p5d4f3g.ECP.39el.
X. Cao, M. Dolg, H. Stoll. J. Chem. Phys. 118 (2003) 487-496. doi:10.1063/1.1521431
EINSTEINIUM (14s,13p,10d,8f,6g) -> [6s,6p,5d,4f,3g]
    39.0   4
* s-type functions
   14    6
      17331.34300000
       2753.32310000
        505.85950000
        149.87550000
         87.30173700
         50.90462600
         29.74997200
         14.35047500
          3.81005900
          1.90620100
          0.84877700
          0.36744200
          0.07086000
          0.02806200
   0.00000700  -0.00000300   0.00000100  -0.00000200  -0.00000500   0.00001900
   0.00000600  -0.00000900   0.00000400  -0.00002400  -0.00005300  -0.00054900
   0.00046700  -0.00015800   0.00005500  -0.00001700  -0.00007400   0.00437100
  -0.01006200   0.00365700  -0.00135900   0.00104000   0.00107600  -0.07272800
   0.07065300  -0.02967800   0.01173800  -0.01788200  -0.02293700   0.25732800
  -0.33332900   0.15787900  -0.06469400   0.12601900   0.17536100  -0.35823900
   0.88216100  -0.45486700   0.18951200  -0.40636700  -0.59472600  -0.17009500
  -1.38596700   0.79820600  -0.33727900   0.77664900   1.20870100   1.43660400
   1.14280000  -1.04857600   0.46027400  -1.42912300  -3.08885100  -6.42335900
   0.36796800  -0.35331500   0.19370000   0.13537800   2.76922900  10.66837300
   0.00916900   0.86998700  -0.52982200   2.20582500   0.82366700  -9.03890800
   0.00076500   0.51417600  -0.43731800  -1.50065200  -2.31692300   4.47325500
  -0.00037400   0.10667800   0.73905300  -1.06291200   2.37188900  -1.67017500
  -0.00009400   0.05208000   0.44908800   1.30287500  -1.64196500   0.87054700
* p-type functions
   13    6
       3873.61170000
        912.40622000
        291.65876000
        108.11733000
         42.56998800
         16.45897900
          7.65897100
          4.46836800
          2.06219600
          0.80451500
          0.33088400
          0.11071400
          0.03295000
   0.00052000  -0.00072500   0.00141600  -0.00130000   0.00100300  -0.00121100
   0.00442800  -0.00603800   0.01183300  -0.01085000   0.00813900  -0.00996700
   0.02106200  -0.02950300   0.05790600  -0.05335900   0.04164200  -0.05118300
   0.06037500  -0.08230900   0.16266700  -0.15028000   0.11349000  -0.14506600
   0.08064300  -0.11940100   0.23429400  -0.21611500   0.17310200  -0.19456000
   0.11079400  -0.08722000   0.12994100  -0.08090200  -0.01787800   0.03853900
  -0.37351700   0.16648300  -0.01896200  -0.29899500   0.78442300  -1.58163200
   0.45307200  -0.47617000   0.64083100  -0.11573700  -1.07714100   4.03920100
   0.69390500  -0.25037400  -0.48308600   1.11272800  -0.54763400  -3.64390700
   0.12634500   0.48492500  -0.66479500  -0.82063500   2.08655500   1.99271500
  -0.00903700   0.57054700   0.60265400  -0.44518300  -1.98025800  -0.49527600
   0.00350200   0.09654600   0.40604300   0.86479900   0.65320900  -0.52482500
  -0.00094100  -0.00404000   0.03625000   0.12202100   0.40330100   0.69073700
* d-type functions
   10    5
        594.62208000
        179.56223000
         68.02993600
         26.58406700
         12.29774700
          4.80557400
          2.36549400
          1.05549500
          0.29525600
          0.08220300
   0.00020100  -0.00009500  -0.00027800   0.00027800  -0.00124500
   0.00169000  -0.00041600  -0.00075100   0.00344500  -0.00460000
   0.00819400  -0.00367700  -0.01052100   0.01292700  -0.04962900
   0.02749300  -0.00619100  -0.00925800   0.04800400  -0.03469300
  -0.01674100  -0.00512300  -0.03152100  -0.02355000  -0.17870500
   0.43588800  -0.14508000  -0.28288000   0.95576100  -1.43474500
   0.49949600  -0.18233000  -0.47880200  -0.72619700   2.65792800
   0.16558300   0.22412800   1.04340500  -0.48993500  -1.91694200
   0.00659000   0.61783200   0.06897000   1.03239000   0.91018300
  -0.00051100   0.43061900  -0.67873600  -0.77398500  -0.45480100
* f-type functions
    8    4
        133.96532000
         46.51711100
         19.39758800
          8.47306000
          3.91733100
          1.78212000
          0.74447500
          0.26884600
   0.00115900  -0.00147500   0.00281900   0.00384000
   0.01087100  -0.01409900   0.02511800   0.05260500
   0.05153900  -0.06655400   0.11745000   0.14315700
   0.15827300  -0.20093700   0.32876600   0.60988300
   0.35330400  -0.37718600   0.41081800  -0.27943800
   0.40079100  -0.08246900  -0.69181800  -0.92663100
   0.27839100   0.50469500  -0.32116700   1.35049800
   0.10574100   0.50511500   0.78867400  -0.80405400
* g-type functions
    6    3
        133.96532000
         46.51711100
         19.39758800
          8.47306000
          3.91733100
          1.78212000
  -0.00005000  -0.00129000   0.00124900
   0.00880400  -0.01072000  -0.05349200
   0.03655100  -0.12080600  -0.12652500
   0.15929500  -0.23458700  -0.97295300
   0.22560800  -0.70896700   1.32696300
   0.58780100   0.84195400  -0.62763800
PP, Es, 60, 5 ;
  1 ;
 2,     1.00000000,     0.00000000 ;
  1 ;
 2,    25.23943442,  1109.05253371 ;
  1 ;
 2,     8.57450440,   175.31877724 ;
  1 ;
 2,     9.45460730,   124.58681414 ;
  1 ;
 2,     6.27339051,    29.55192708 ;
  1 ;
 2,    17.35145618,   -77.64107478 ;
Spectral Representation Operator
End of Spectral Representation Operator

/Fm.Stuttgart.Cao.14s13p10d8f6g.6s6p5d4f3g.ECP.40el.
X. Cao, M. Dolg, H. Stoll. J. Chem. Phys. 118 (2003) 487-496. doi:10.1063/1.1521431
FERMIUM (14s,13p,10d,8f,6g) -> [6s,6p,5d,4f,3g]
    40.0   4
* s-type functions
   14    6
      18163.67600000
       2828.31050000
        507.71698000
        156.07154000
         90.91090000
         53.17427100
         30.99123700
         14.91294600
          3.95957100
          1.99098900
          0.88581500
          0.38127200
          0.07363000
          0.02902100
   0.00000600  -0.00000200   0.00000100  -0.00000100   0.00000500   0.00001800
   0.00000000  -0.00000500   0.00000300  -0.00002300   0.00006700  -0.00065000
   0.00048700  -0.00017300   0.00006200   0.00002800  -0.00004900   0.00527000
  -0.01062600   0.00410600  -0.00157700   0.00060800   0.00053900  -0.08402200
   0.07418900  -0.03211200   0.01302000  -0.01616800   0.01842900   0.29829400
  -0.34193700   0.16349100  -0.06845500   0.11853200  -0.17250000  -0.43473800
   0.89339000  -0.46106100   0.19609000  -0.38354500   0.60754800  -0.08842400
  -1.39288000   0.79951900  -0.34462600   0.73028800  -1.24642200   1.38892400
   1.13521300  -1.03417600   0.46154700  -1.30707900   3.16147200  -6.45170000
   0.37327400  -0.36315800   0.20350000   0.03686800  -2.74367300  10.68283000
   0.01273900   0.85544700  -0.52800000   2.11336800  -0.97173400  -8.96973900
  -0.00000700   0.52214700  -0.45169400  -1.33778800   2.39720900   4.41771000
  -0.00024500   0.11237900   0.73172000  -1.19455000  -2.30693400  -1.64416100
  -0.00016200   0.05600600   0.45644800   1.38456400   1.56397000   0.85015400
* p-type functions
   13    6
       4083.61230000
        965.88953000
        309.65214000
        114.78649000
         44.86185600
         15.68180900
          8.13987700
          4.74229500
          2.15582200
          0.84935000
          0.34332900
          0.11192900
          0.03329500
   0.00056700  -0.00088400   0.00178900  -0.00102900   0.00087200  -0.00118900
   0.00479900  -0.00732200   0.01481000  -0.00849900   0.00694100  -0.00981500
   0.02281000  -0.03577800   0.07278600  -0.04212000   0.03621100  -0.05045900
   0.06636000  -0.10119900   0.20656800  -0.11983600   0.09902300  -0.14814500
   0.09108700  -0.14975100   0.30465400  -0.17591000   0.15300900  -0.18429100
   0.14476100  -0.12887800   0.17903500  -0.04709500  -0.07030600   0.08719600
  -0.37229700   0.19903200   0.00925700  -0.32081200   0.83222500  -1.51826600
   0.32860700  -0.43991400   0.52483300   0.11659000  -1.24241400   3.96751900
   0.74495200  -0.27728700  -0.61354000   1.03668500  -0.36457100  -3.71189800
   0.16505900   0.42823900  -0.42320400  -1.09412700   1.96090000   2.20139500
  -0.00949400   0.59154000   0.60691000  -0.19001500  -1.97519100  -0.71591500
   0.00406000   0.11047200   0.26099800   0.88726200   0.75643000  -0.34620000
  -0.00111900  -0.00527300   0.01058500   0.07498300   0.35075700   0.62009800
* d-type functions
   10    5
        617.55238000
        186.94199000
         70.54964700
         28.26042200
         12.82689300
          5.00094400
          2.46076100
          1.10221800
          0.29919600
          0.08197100
   0.00022200  -0.00010100  -0.00032000   0.00039800  -0.00162600
   0.00202400  -0.00051000  -0.00112500   0.00436300  -0.00758500
   0.00922300  -0.00399100  -0.01244700   0.01807400  -0.06656500
   0.03040800  -0.00700500  -0.01283900   0.05390100  -0.05145700
  -0.00498100  -0.00908900  -0.04287600   0.00425400  -0.25107800
   0.42905100  -0.13737500  -0.29311200   0.97703500  -1.22637900
   0.49795100  -0.17548100  -0.46371900  -0.82714600   2.47802300
   0.16682900   0.21569600   1.04052800  -0.38259100  -1.85457800
   0.00704100   0.61424000   0.07462400   0.97582800   0.90314000
  -0.00070000   0.44485100  -0.66198900  -0.75313200  -0.46631000
* f-type functions
    8    4
        137.35558000
         47.84952100
         20.06537800
          8.84178600
          4.10724800
          1.87425200
          0.78532100
          0.28442500
   0.00127600  -0.00165000   0.00335000   0.00549000
   0.01174200  -0.01579400   0.02969500   0.06134900
   0.05457600  -0.07229500   0.12903200   0.16789600
   0.16385300  -0.21240900   0.35515400   0.62389800
   0.35450800  -0.37513300   0.36667700  -0.41641300
   0.39709500  -0.06180400  -0.71621600  -0.78054900
   0.27449000   0.50624300  -0.26467100   1.29852500
   0.10355000   0.49395400   0.76868900  -0.80913700
* g-type functions
    6    3
        137.35558000
         47.84952100
         20.06537800
          8.84178600
          4.10724800
          1.87425200
  -0.00002100  -0.00122000   0.00058300
   0.00840600  -0.01143000  -0.05099400
   0.03485400  -0.11451900  -0.13608200
   0.14694800  -0.23103000  -0.85724900
   0.21315200  -0.61703600   1.21752000
   0.50391800   0.77306700  -0.58963200
PP, Fm, 60, 5 ;
  1 ;
 2,     1.00000000,     0.00000000 ;
  1 ;
 2,    26.49971356,  1201.22279983 ;
  1 ;
 2,     8.45509135,   179.58021904 ;
  1 ;
 2,     9.52611052,   122.51530386 ;
  1 ;
 2,     6.48364925,    29.49963960 ;
  1 ;
 2,    18.05016051,   -80.16520155 ;
Spectral Representation Operator
End of Spectral Representation Operator
