************************************************************************
* This file is part of OpenMolcas.                                     *
*                                                                      *
* OpenMolcas is free software; you can redistribute it and/or modify   *
* it under the terms of the GNU Lesser General Public License, v. 2.1. *
* OpenMolcas is distributed in the hope that it will be useful, but it *
* is provided "as is" and without any express or implied warranties.   *
* For more details see the full text of the license in the file        *
* LICENSE or in <http://www.gnu.org/licenses/>.                        *
************************************************************************
/Al.TZVP..14s9p1d.5s4p1d.
Reference none
AL       (14s9p1d) -> [5s4p1d]

	13.000000 2
* S-type functions
    14 5
        37792.550772
        5668.0682165
        1289.8582841
        364.86596028
        118.57631515
        42.024867605
        15.499501629
        75.208026598
        23.031408972
        3.6348797649
        1.6065049957
        .76103394581
        .16556708849
        .60041577113E-01
 .57047888709E-03 0.0 0.0 0.0 0.0
 .44093016538E-02 0.0 0.0 0.0 0.0
 .22630967411E-01 0.0 0.0 0.0 0.0
 .88025644295E-01 0.0 0.0 0.0 0.0
 .25223701612 0.0 0.0 0.0 0.0
 .45960547169 0.0 0.0 0.0 0.0
 .33277886014 0.0 0.0 0.0 0.0
 0.0 .19250560190E-01 0.0 0.0 0.0
 0.0 .87906743952E-01 0.0 0.0 0.0
 0.0 -.34246704535 0.0 0.0 0.0
 0.0 0.0 1.5106266058 0.0 0.0
 0.0 0.0 .58071016470 0.0 0.0
 0.0 0.0 0.0 1.0000000000 0.0
 0.0 0.0 0.0 0.0 1.0000000000
* P-type functions
    9 4
        452.52303192
        107.08195049
        34.131021255
        12.587037428
        4.9811919704
        2.0070350900
        .80083714374
        .20178927472
        .57895550392E-01
 .23110812466E-02 0.0 0.0 0.0
 .18568641823E-01 0.0 0.0 0.0
 .87216237035E-01 0.0 0.0 0.0
 .26902101523 0.0 0.0 0.0
 .52128324272 0.0 0.0 0.0
 .60271687494 0.0 0.0 0.0
 0.0 1.0000000000 0.0 0.0
 0.0 0.0 1.0000000000 0.0
 0.0 0.0 0.0 1.0000000000
* D-type functions
    1 1
        .30
 1.00

/Ar.TZVP..14s9p1d.5s4p1d.
Reference none
AR       (14s9p1d) -> [5s4p1d]

	18.000000 2
* S-type functions
    14 5
        79111.422998
        11864.746009
        2700.1642973
        763.95943485
        248.45150561
        88.283581000
        32.948607069
        142.55358000
        44.163688009
        8.9524995000
        4.5546920941
        2.1444079001
        .60708777004
        .21651431999
 .51029325002E-03 0.0 0.0 0.0 0.0
 .39463036981E-02 0.0 0.0 0.0 0.0
 .20307073910E-01 0.0 0.0 0.0 0.0
 .79691825214E-01 0.0 0.0 0.0 0.0
 .23420623836 0.0 0.0 0.0 0.0
 .44833849481 0.0 0.0 0.0 0.0
 .36408167400 0.0 0.0 0.0 0.0
 0.0 .26387407001E-01 0.0 0.0 0.0
 0.0 .11226433999 0.0 0.0 0.0
 0.0 -.26178922001 0.0 0.0 0.0
 0.0 0.0 1.3002484998 0.0 0.0
 0.0 0.0 .67197237009 0.0 0.0
 0.0 0.0 0.0 1.0000000000 0.0
 0.0 0.0 0.0 0.0 1.0000000000
* P-type functions
    9 4
        776.77541998
        183.80107018
        58.694003175
        21.701591695
        8.5821489635
        3.4922679161
        1.2637426998
        .46607870005
        .15766003000
 .22028005003E-02 0.0 0.0 0.0
 .17694180008E-01 0.0 0.0 0.0
 .82431293717E-01 0.0 0.0 0.0
 .24207278863 0.0 0.0 0.0
 .42263558251 0.0 0.0 0.0
 .34151806086 0.0 0.0 0.0
 0.0 1.0000000000 0.0 0.0
 0.0 0.0 1.0000000000 0.0
 0.0 0.0 0.0 1.0000000000
* D-type functions
    1 1
        .696
 1.000

/As.TZVP..17s13p7d.6s5p3d.
Reference none
AS       (17s13p7d) -> [6s5p3d]

	33.000000 2
* S-type functions
    17 6
        498032.42158
        74656.868743
        16990.960004
        4809.6200321
        1566.2887055
        563.21360499
        219.11179978
        86.866061030
        538.19512479
        167.14850224
        27.605517159
        11.947858521
        18.538023133
        3.2018985739
        1.4356522077
        .31837805200
        .11622632186
 .22740196900E-03 0.0 0.0 0.0 0.0 0.0
 .17632816413E-02 0.0 0.0 0.0 0.0 0.0
 .91728040381E-02 0.0 0.0 0.0 0.0 0.0
 .37337829344E-01 0.0 0.0 0.0 0.0 0.0
 .12199536117 0.0 0.0 0.0 0.0 0.0
 .29137475324 0.0 0.0 0.0 0.0 0.0
 .42326351479 0.0 0.0 0.0 0.0 0.0
 .22921464278 0.0 0.0 0.0 0.0 0.0
 0.0 -.25254197297E-01 0.0 0.0 0.0 0.0
 0.0 -.11915461115 0.0 0.0 0.0 0.0
 0.0 .54628495980 0.0 0.0 0.0 0.0
 0.0 .53001520976 0.0 0.0 0.0 0.0
 0.0 0.0 -.23479188136 0.0 0.0 0.0
 0.0 0.0 .69167053428 0.0 0.0 0.0
 0.0 0.0 0.0 1.0000000000 0.0 0.0
 0.0 0.0 0.0 0.0 1.0000000000 0.0
 0.0 0.0 0.0 0.0 0.0 1.0000000000
* P-type functions
    13 5
        2678.9421546
        634.61765840
        203.93967606
        76.323890369
        30.664124943
        12.505056732
        49.256229549
        7.7274891466
        3.5410493476
        1.6985585501
        .76848071044
        .30050823260
        .98190639437E-01
 .23318955287E-02 0.0 0.0 0.0 0.0
 .19042149977E-01 0.0 0.0 0.0 0.0
 .90229744913E-01 0.0 0.0 0.0 0.0
 .26169037693 0.0 0.0 0.0 0.0
 .41857168155 0.0 0.0 0.0 0.0
 .23447830190 0.0 0.0 0.0 0.0
 0.0 -.21235539870E-01 0.0 0.0 0.0
 0.0 .30470206668 0.0 0.0 0.0
 0.0 .52888373107 0.0 0.0 0.0
 0.0 .37272250955 0.0 0.0 0.0
 0.0 0.0 1.0000000000 0.0 0.0
 0.0 0.0 0.0 1.0000000000 0.0
 0.0 0.0 0.0 0.0 1.0000000000
* D-type functions
    7 3
        135.33289305
        39.860212744
        14.446428359
        5.6432900356
        2.1668188623
        .76514970569
        .293
 .99291144106E-02 0.0 0.0
 .66568843496E-01 0.0 0.0
 .22275768307 0.0 0.0
 .40309224382 0.0 0.0
 .41671667946 0.0 0.0
 0.0 .18935502288 0.0
 0.0 0.0 1.000

/B.TZVP..11s6p1d.5s3p1d.
Reference none
B       (11s6p1d) -> [5s3p1d]

	5.000000 2
* S-type functions
    11 5
        8564.8660687
        1284.1516263
        292.27871604
        82.775469176
        27.017939269
        9.8149619660
        3.9318559059
        1.6595599712
        .35762965239
        .14246277496
        .60560594768E-01
 .22837198155E-03 0.0 0.0 0.0 0.0
 .17682576447E-02 0.0 0.0 0.0 0.0
 .91407080516E-02 0.0 0.0 0.0 0.0
 .36342638989E-01 0.0 0.0 0.0 0.0
 .11063458441 0.0 0.0 0.0 0.0
 .23367344321 0.0 0.0 0.0 0.0
 0.0 .41818777978 0.0 0.0 0.0
 0.0 .22325473798 0.0 0.0 0.0
 0.0 0.0 1.0000000000 0.0 0.0
 0.0 0.0 0.0 1.0000000000 0.0
 0.0 0.0 0.0 0.0 1.0000000000
* P-type functions
    6 3
        22.453875803
        5.1045058330
        1.4986081344
        .50927831315
        .18147077798
        .64621893904E-01
 .50265575179E-02 0.0 0.0
 .32801738965E-01 0.0 0.0
 .13151230768 0.0 0.0
 .33197167769 0.0 0.0
 0.0 .47314319570 0.0
 0.0 0.0 .25802783943
* D-type functions
    1 1
        .50
 1.00

/Be.TZVP..11s4p.5s2p.
Reference none
BE       (11s4p) -> [5s2p]

	4.000000 1
* S-type functions
    11 5
        4700.2365626
        704.82845622
        160.43110478
        45.425347336
        14.798334125
        5.3512452537
        2.1542044819
        .93363744400
        .18791432989
        .74648267947E-01
        .32650484598E-01
 .23584389316E-03 0.0 0.0 0.0 0.0
 .18243791019E-02 0.0 0.0 0.0 0.0
 .93966148224E-02 0.0 0.0 0.0 0.0
 .36908924159E-01 0.0 0.0 0.0 0.0
 .10897561281 0.0 0.0 0.0 0.0
 .21694284551 0.0 0.0 0.0 0.0
 0.0 .44695408857 0.0 0.0 0.0
 0.0 .20866985771 0.0 0.0 0.0
 0.0 0.0 1.0000000000 0.0 0.0
 0.0 0.0 0.0 1.0000000000 0.0
 0.0 0.0 0.0 0.0 1.0000000000
* P-type functions
    4 2
        3.6316917145
        .71695694366
        .19541932860
        .60515465890E-01
 -.29033998305E-01 0.0
 -.16877854032 0.0
 -.51403419628 0.0
 0.0 1.0000000000

/Br.TZVP..17s13p7d.6s5p3d.
Reference none
BR       (17s13p7d) -> [6s5p3d]

	35.000000 2
* S-type functions
    17 6
        565073.25256
        84701.723179
        19276.271900
        5456.4284576
        1776.9503500
        639.19398276
        248.78823961
        98.678305494
        606.07824568
        188.45598484
        31.497144506
        13.736008320
        21.203212766
        3.7616420178
        1.7735933962
        .45197413664
        .16613377099
 .23660314690E-03 0.0 0.0 0.0 0.0 0.0
 .18348332508E-02 0.0 0.0 0.0 0.0 0.0
 .95465849860E-02 0.0 0.0 0.0 0.0 0.0
 .38877142153E-01 0.0 0.0 0.0 0.0 0.0
 .12718314231 0.0 0.0 0.0 0.0 0.0
 .30437662191 0.0 0.0 0.0 0.0 0.0
 .44490940497 0.0 0.0 0.0 0.0 0.0
 .24381643058 0.0 0.0 0.0 0.0 0.0
 0.0 -.26527158709E-01 0.0 0.0 0.0 0.0
 0.0 -.12484584809 0.0 0.0 0.0 0.0
 0.0 .56468683559 0.0 0.0 0.0 0.0
 0.0 .55555268564 0.0 0.0 0.0 0.0
 0.0 0.0 -.24940920493 0.0 0.0 0.0
 0.0 0.0 .71213119743 0.0 0.0 0.0
 0.0 0.0 0.0 1.0000000000 0.0 0.0
 0.0 0.0 0.0 0.0 1.0000000000 0.0
 0.0 0.0 0.0 0.0 0.0 1.0000000000
* P-type functions
    13 5
        3019.6955723
        715.35481126
        229.98328751
        86.167844615
        34.667870802
        14.113870307
        57.085653082
        8.8193845840
        3.9340302872
        1.7998830384
        .66899410512
        .27136238231
        .10083790243
 .24971049798E-02 0.0 0.0 0.0 0.0
 .20419267596E-01 0.0 0.0 0.0 0.0
 .96897148309E-01 0.0 0.0 0.0 0.0
 .28053901252 0.0 0.0 0.0 0.0
 .44606390473 0.0 0.0 0.0 0.0
 .24410073923 0.0 0.0 0.0 0.0
 0.0 -.21855950710E-01 0.0 0.0 0.0
 0.0 .32707075320 0.0 0.0 0.0
 0.0 .57855229520 0.0 0.0 0.0
 0.0 .33570987698 0.0 0.0 0.0
 0.0 0.0 1.0000000000 0.0 0.0
 0.0 0.0 0.0 1.0000000000 0.0
 0.0 0.0 0.0 0.0 1.0000000000
* D-type functions
    7 3
        168.85370257
        49.977949919
        18.274913338
        7.2455694631
        2.8562315025
        1.0459621144
        .389
 .89663981988E-02 0.0 0.0
 .62062059316E-01 0.0 0.0
 .21474732384 0.0 0.0
 .40335336746 0.0 0.0
 .42208813080 0.0 0.0
 0.0 .17874813267 0.0
 0.0 0.0 1.000

/C.TZVP..11s6p1d.5s3p1d.
Reference none
C       (11s6p1d) -> [5s3p1d]

	6.000000 2
* S-type functions
    11 5
        13575.349682
        2035.2333680
        463.22562359
        131.20019598
        42.853015891
        15.584185766
        6.2067138508
        2.5764896527
        .57696339419
        .22972831358
        .95164440028E-01
 .22245814352E-03 0.0 0.0 0.0 0.0
 .17232738252E-02 0.0 0.0 0.0 0.0
 .89255715314E-02 0.0 0.0 0.0 0.0
 .35727984502E-01 0.0 0.0 0.0 0.0
 .11076259931 0.0 0.0 0.0 0.0
 .24295627626 0.0 0.0 0.0 0.0
 0.0 .41440263448 0.0 0.0 0.0
 0.0 .23744968655 0.0 0.0 0.0
 0.0 0.0 1.0000000000 0.0 0.0
 0.0 0.0 0.0 1.0000000000 0.0
 0.0 0.0 0.0 0.0 1.0000000000
* P-type functions
    6 3
        34.697232244
        7.9582622826
        2.3780826883
        .81433208183
        .28887547253
        .10056823671
 .53333657805E-02 0.0 0.0
 .35864109092E-01 0.0 0.0
 .14215873329 0.0 0.0
 .34270471845 0.0 0.0
 0.0 .46445822433 0.0
 0.0 0.0 .24955789874
* D-type functions
    1 1
        .80
 1.00

/Ca.TZVP..17s11p4d.6s4p2d.
Reference none
CA       (17s11p4d) -> [6s4p2d]

	20.000000 2
* S-type functions
    17 6
        172517.32685
        25861.519275
        5885.6618668
        1665.9730031
        542.36718148
        194.57803492
        75.303597636
        29.574062589
        191.20074660
        58.840299883
        8.9642540845
        3.6856960541
        5.2464289726
        .84862621528
        .36743300538
        .66821582613E-01
        .26759730445E-01
 .23317502546E-03 0.0 0.0 0.0 0.0 0.0
 .18076521980E-02 0.0 0.0 0.0 0.0 0.0
 .93943844255E-02 0.0 0.0 0.0 0.0 0.0
 .38108409009E-01 0.0 0.0 0.0 0.0 0.0
 .12331203853 0.0 0.0 0.0 0.0 0.0
 .29004470954 0.0 0.0 0.0 0.0 0.0
 .40587151157 0.0 0.0 0.0 0.0 0.0
 .20398410743 0.0 0.0 0.0 0.0 0.0
 0.0 -.24419759759E-01 0.0 0.0 0.0 0.0
 0.0 -.11547027448 0.0 0.0 0.0 0.0
 0.0 .56356636717 0.0 0.0 0.0 0.0
 0.0 .56709682704 0.0 0.0 0.0 0.0
 0.0 0.0 -.22825334325 0.0 0.0 0.0
 0.0 0.0 .72625219172 0.0 0.0 0.0
 0.0 0.0 0.0 1.0000000000 0.0 0.0
 0.0 0.0 0.0 0.0 1.0000000000 0.0
 0.0 0.0 0.0 0.0 0.0 1.0000000000
* P-type functions
    11 4
        836.97262058
        197.93040142
        63.135558054
        23.282687170
        9.1176444932
        3.6336120139
        13.494163120
        1.8139259790
        .71981826006
        .27629576992
        .074979
 .25258346092E-02 0.0 0.0 0.0
 .20076506686E-01 0.0 0.0 0.0
 .91302987366E-01 0.0 0.0 0.0
 .25247029915 0.0 0.0 0.0
 .39426326344 0.0 0.0 0.0
 .23011559492 0.0 0.0 0.0
 0.0 -.26495021951E-01 0.0 0.0
 0.0 .55088108210 0.0 0.0
 0.0 1.0280616620 0.0 0.0
 0.0 0.0 1.0000000000 0.0
 0.0 0.0 0.0 1.000000
* D-type functions
    4 2
        5.4979093879
        1.3177128032
        0.32188682649
        0.70528614919E-01
 0.73770011433E-01 0.0
 0.26052853169 0.0
 0.45233836380 0.0
 0.0 1.0000000000

/Cl.TZVP..14s9p1d.5s4p1d.
Reference none
CL       (14s9p1d) -> [5s4p1d]

	17.000000 2
* S-type functions
    14 5
        69507.990945
        10426.156880
        2373.2334061
        671.56420071
        218.41999790
        77.572249714
        28.888815277
        127.10527185
        39.339582961
        7.6740679989
        3.8745627630
        1.8385832573
        .50229057542
        .17962723420
 .54314897497E-03 0.0 0.0 0.0 0.0
 .41990463961E-02 0.0 0.0 0.0 0.0
 .21592141679E-01 0.0 0.0 0.0 0.0
 .84598850094E-01 0.0 0.0 0.0 0.0
 .24757249724 0.0 0.0 0.0 0.0
 .47016930228 0.0 0.0 0.0 0.0
 .37436370716 0.0 0.0 0.0 0.0
 0.0 .25182166603E-01 0.0 0.0 0.0
 0.0 .10786112456 0.0 0.0 0.0
 0.0 -.27408821574 0.0 0.0 0.0
 0.0 0.0 1.3213875014 0.0 0.0
 0.0 0.0 .68636955368 0.0 0.0
 0.0 0.0 0.0 1.0000000000 0.0
 0.0 0.0 0.0 0.0 1.0000000000
* P-type functions
    9 4
        666.50423284
        157.64241690
        50.262520978
        18.536078105
        7.2940532777
        2.9433248995
        1.0404970818
        .38456415080
        .13069642732
 .23632663836E-02 0.0 0.0 0.0
 .18879300374E-01 0.0 0.0 0.0
 .87206341273E-01 0.0 0.0 0.0
 .25285612970 0.0 0.0 0.0
 .43507154820 0.0 0.0 0.0
 .35026513165 0.0 0.0 0.0
 0.0 1.0000000000 0.0 0.0
 0.0 0.0 1.0000000000 0.0
 0.0 0.0 0.0 1.0000000000
* D-type functions
    1 1
        .65
 1.00

/Co.TZVP..17s11p6d.6s4p3d.
Reference none
CO       (17s11p6d) -> [6s4p3d]

	27.000000 2
* S-type functions
    17 6
        325817.01553
        48839.636453
        11114.937307
        3146.1603642
        1024.4378465
        368.02508816
        142.91229205
        56.482649209
        356.40298318
        110.31165215
        17.659634834
        7.5059030479
        11.501807176
        1.9081994606
        .79396696891
        .12444448829
        .44444645379E-01
 .22568462484E-03 0.0 0.0 0.0 0.0 0.0
 .17499397533E-02 0.0 0.0 0.0 0.0 0.0
 .91003134097E-02 0.0 0.0 0.0 0.0 0.0
 .36996256837E-01 0.0 0.0 0.0 0.0 0.0
 .12044269621 0.0 0.0 0.0 0.0 0.0
 .28598731649 0.0 0.0 0.0 0.0 0.0
 .40908312004 0.0 0.0 0.0 0.0 0.0
 .21500145739 0.0 0.0 0.0 0.0 0.0
 0.0 -.24767059678E-01 0.0 0.0 0.0 0.0
 0.0 -.11702139134 0.0 0.0 0.0 0.0
 0.0 .55215522200 0.0 0.0 0.0 0.0
 0.0 .53246877060 0.0 0.0 0.0 0.0
 0.0 0.0 -.22942470077 0.0 0.0 0.0
 0.0 0.0 .71180933514 0.0 0.0 0.0
 0.0 0.0 0.0 1.0000000000 0.0 0.0
 0.0 0.0 0.0 0.0 1.0000000000 0.0
 0.0 0.0 0.0 0.0 0.0 1.0000000000
* P-type functions
    11 4
        1731.1369144
        409.91750438
        131.45648578
        48.987439714
        19.537078992
        7.9287281634
        31.076017584
        4.2835180697
        1.7022921563
        .64202908602
        .141308
 .23905767685E-02 0.0 0.0 0.0
 .19382999967E-01 0.0 0.0 0.0
 .90905448509E-01 0.0 0.0 0.0
 .26146681577 0.0 0.0 0.0
 .42157264570 0.0 0.0 0.0
 .24571813557 0.0 0.0 0.0
 0.0 -.29438069973E-01 0.0 0.0
 0.0 .55615568168 0.0 0.0
 0.0 .96772195064 0.0 0.0
 0.0 0.0 1.0000000000 0.0
 0.0 0.0 0.0 1.000000
* D-type functions
    6 3
        68.140745239
        19.685241019
        6.9322128825
        2.6025125694
        .94016837302
        .30381457794
 .11983845360E-01 0.0 0.0
 .73688540475E-01 0.0 0.0
 .23085496779 0.0 0.0
 .39281059225 0.0 0.0
 0.0 .40203412228 0.0
 0.0 0.0 .21415606743

/Cr.TZVP..17s11p6d.6s4p3d.
Reference none
CR       (17s11p6d) -> [6s4p3d]

	24.000000 2
* S-type functions
    17 6
        254477.80704
        38131.797054
        8675.2930607
        2455.0099848
        799.16217787
        286.90021489
        111.25413232
        43.864152636
        279.32669173
        86.274732376
        13.555756113
        5.6978112751
        8.5636582615
        1.3988296768
        .57288171116
        .90096171317E-01
        .34125885135E-01
 .23386945693E-03 0.0 0.0 0.0 0.0 0.0
 .18142601800E-02 0.0 0.0 0.0 0.0 0.0
 .94363925721E-02 0.0 0.0 0.0 0.0 0.0
 .38343639367E-01 0.0 0.0 0.0 0.0 0.0
 .12459194837 0.0 0.0 0.0 0.0 0.0
 .29489696029 0.0 0.0 0.0 0.0 0.0
 .41846149607 0.0 0.0 0.0 0.0 0.0
 .21633763420 0.0 0.0 0.0 0.0 0.0
 0.0 -.23450908111E-01 0.0 0.0 0.0 0.0
 0.0 -.11080370027 0.0 0.0 0.0 0.0
 0.0 .53028965842 0.0 0.0 0.0 0.0
 0.0 .51603516947 0.0 0.0 0.0 0.0
 0.0 0.0 -.38109545675 0.0 0.0 0.0
 0.0 0.0 1.1991591436 0.0 0.0 0.0
 0.0 0.0 0.0 1.0000000000 0.0 0.0
 0.0 0.0 0.0 0.0 1.0000000000 0.0
 0.0 0.0 0.0 0.0 0.0 1.0000000000
* P-type functions
    11 4
        1306.4398864
        309.25311441
        98.996273963
        36.756916451
        14.566657077
        5.8739937432
        22.890999695
        3.0855001822
        1.2132329118
        .44931680699
        .120675
 .24277326185E-02 0.0 0.0 0.0
 .19544041017E-01 0.0 0.0 0.0
 .90651794553E-01 0.0 0.0 0.0
 .25699279154 0.0 0.0 0.0
 .40935504891 0.0 0.0 0.0
 .23729388849 0.0 0.0 0.0
 0.0 -.28166026613E-01 0.0 0.0
 0.0 .56034120148 0.0 0.0
 0.0 .98119019650 0.0 0.0
 0.0 0.0 1.0000000000 0.0
 0.0 0.0 0.0 1.000000
* D-type functions
    6 3
        43.720074476
        12.391242652
        4.2639442006
        1.5525221790
        .53761929485
        .16493173074
 .13622964026E-01 0.0 0.0
 .78935180133E-01 0.0 0.0
 .23833840000 0.0 0.0
 .39526851122 0.0 0.0
 0.0 .41061717056 0.0
 0.0 0.0 .24440410795

/Cu.TZVP..17s11p6d.6s4p3d.
Reference none
CU       (17s11p6d) -> [6s4p3d]

	29.000000 2
* S-type functions
    17 6
        377518.79923
        56589.984311
        12878.711706
        3645.3752143
        1187.0072945
        426.46421902
        165.70660164
        65.598942707
        414.41265811
        128.32056039
        20.622089750
        8.7821226045
        13.741372006
        2.2431246833
        .89370549079
        .10836699534
        .38806178058E-01
 .22811766128E-03 0.0 0.0 0.0 0.0 0.0
 .17688035931E-02 0.0 0.0 0.0 0.0 0.0
 .91993460227E-02 0.0 0.0 0.0 0.0 0.0
 .37411016434E-01 0.0 0.0 0.0 0.0 0.0
 .12189873737 0.0 0.0 0.0 0.0 0.0
 .28983900714 0.0 0.0 0.0 0.0 0.0
 .41531872174 0.0 0.0 0.0 0.0 0.0
 .21905799287 0.0 0.0 0.0 0.0 0.0
 0.0 -.24682525053E-01 0.0 0.0 0.0 0.0
 0.0 -.11716827406 0.0 0.0 0.0 0.0
 0.0 .55301315941 0.0 0.0 0.0 0.0
 0.0 .52242718609 0.0 0.0 0.0 0.0
 0.0 0.0 -.22736061821 0.0 0.0 0.0
 0.0 0.0 .71761210873 0.0 0.0 0.0
 0.0 0.0 0.0 1.0000000000 0.0 0.0
 0.0 0.0 0.0 0.0 1.0000000000 0.0
 0.0 0.0 0.0 0.0 0.0 1.0000000000
* P-type functions
    11 4
        2034.7596692
        481.90468106
        154.67482963
        57.740576969
        23.099052811
        9.3882478591
        37.596171210
        5.1240690810
        2.0119996085
        .73860686002
        .155065
 .23524822298E-02 0.0 0.0 0.0
 .19134070751E-01 0.0 0.0 0.0
 .90171105278E-01 0.0 0.0 0.0
 .26063284735 0.0 0.0 0.0
 .42093485770 0.0 0.0 0.0
 .24344615121 0.0 0.0 0.0
 0.0 -.28991094530E-01 0.0 0.0
 0.0 .54919083831 0.0 0.0
 0.0 .93793330488 0.0 0.0
 0.0 0.0 1.0000000000 0.0
 0.0 0.0 0.0 1.000000
* D-type functions
    6 3
        74.129460637
        21.359842587
        7.4995240537
        2.7601394169
        .95362061236
        .28420862520
 .14363216676E-01 0.0 0.0
 .86628177096E-01 0.0 0.0
 .25631430541 0.0 0.0
 .40374062368 0.0 0.0
 0.0 .39427042447 0.0
 0.0 0.0 .23091146816

/F.TZVP..11s6p1d.5s3p1d.
Reference none
F       (11s6p1d) -> [5s3p1d]

	9.000000 2
* S-type functions
    11 5
        35479.100441
        5318.4728983
        1210.4810975
        342.85518140
        112.01943181
        40.714740248
        16.039678111
        6.5038186740
        1.5440477509
        .61223452862
        .24027979698
 .21545014888E-03 0.0 0.0 0.0 0.0
 .16700686527E-02 0.0 0.0 0.0 0.0
 .86733211476E-02 0.0 0.0 0.0 0.0
 .35049933175E-01 0.0 0.0 0.0 0.0
 .11165320133 0.0 0.0 0.0 0.0
 .25988506647 0.0 0.0 0.0 0.0
 0.0 .39422966880 0.0 0.0 0.0
 0.0 .24998238551 0.0 0.0 0.0
 0.0 0.0 1.0000000000 0.0 0.0
 0.0 0.0 0.0 1.0000000000 0.0
 0.0 0.0 0.0 0.0 1.0000000000
* P-type functions
    6 3
        80.233900483
        18.594010743
        5.6867902653
        1.9511006294
        .66970211298
        .21651300410
 .63685999134E-02 0.0 0.0
 .44303143530E-01 0.0 0.0
 .16867248708 0.0 0.0
 .36166346255 0.0 0.0
 0.0 .44202901491 0.0
 0.0 0.0 .24319875730
* D-type functions
    1 1
        1.40
 1.00

/Fe.TZVP..17s11p6d.6s4p3d.
Reference none
FE       (17s11p6d) -> [6s4p3d]

	26.000000 2
* S-type functions
    17 6
        300784.84637
        45088.970557
        10262.516317
        2905.2897293
        946.11487137
        339.87832894
        131.94425588
        52.111494077
        329.48839267
        101.92332739
        16.240462745
        6.8840675801
        10.470693782
        1.7360039648
        .72577288979
        .11595528203
        .41968227746E-01
 .22806273096E-03 0.0 0.0 0.0 0.0 0.0
 .17681788761E-02 0.0 0.0 0.0 0.0 0.0
 .91927083490E-02 0.0 0.0 0.0 0.0 0.0
 .37355495807E-01 0.0 0.0 0.0 0.0 0.0
 .12151108426 0.0 0.0 0.0 0.0 0.0
 .28818881468 0.0 0.0 0.0 0.0 0.0
 .41126612677 0.0 0.0 0.0 0.0 0.0
 .21518583573 0.0 0.0 0.0 0.0 0.0
 0.0 -.24745216477E-01 0.0 0.0 0.0 0.0
 0.0 -.11683089050 0.0 0.0 0.0 0.0
 0.0 .55293621136 0.0 0.0 0.0 0.0
 0.0 .53601640182 0.0 0.0 0.0 0.0
 0.0 0.0 -.22912708577 0.0 0.0 0.0
 0.0 0.0 .71159319984 0.0 0.0 0.0
 0.0 0.0 0.0 1.0000000000 0.0 0.0
 0.0 0.0 0.0 0.0 1.0000000000 0.0
 0.0 0.0 0.0 0.0 0.0 1.0000000000
* P-type functions
    11 4
        1585.3959970
        375.38006499
        120.31816501
        44.788749031
        17.829278584
        7.2247153786
        28.143219756
        3.8743241412
        1.5410752281
        .58285615250
        .134915
 .23793960179E-02 0.0 0.0 0.0
 .19253154755E-01 0.0 0.0 0.0
 .90021836536E-01 0.0 0.0 0.0
 .25798172356 0.0 0.0 0.0
 .41492649744 0.0 0.0 0.0
 .24207474784 0.0 0.0 0.0
 0.0 -.29041755152E-01 0.0 0.0
 0.0 .55312260343 0.0 0.0
 0.0 .96771136842 0.0 0.0
 0.0 0.0 1.0000000000 0.0
 0.0 0.0 0.0 1.000000
* D-type functions
    6 3
        61.996675034
        17.873732552
        6.2744782934
        2.3552337175
        .85432239901
        .27869254413
 .11971972255E-01 0.0 0.0
 .73210135410E-01 0.0 0.0
 .23103094314 0.0 0.0
 .39910706494 0.0 0.0
 0.0 .41391589765 0.0
 0.0 0.0 .21909269782

/Ga.TZVP..17s12p7d.6s5p3d.
Reference none
GA       (17s12p7d) -> [6s5p3d]

	31.000000 2
* S-type functions
    17 6
        435548.66254
        65289.589031
        14858.784256
        4205.9734729
        1369.6416431
        492.30348905
        191.41923233
        75.840558665
        474.30810613
        147.10297560
        23.982599435
        10.298230094
        16.050381430
        2.6988468784
        1.1428588736
        .20217652251
        .71980152032E-01
 .23646329650E-03 0.0 0.0 0.0 0.0 0.0
 .18335271776E-02 0.0 0.0 0.0 0.0 0.0
 .95371863081E-02 0.0 0.0 0.0 0.0 0.0
 .38803412468E-01 0.0 0.0 0.0 0.0 0.0
 .12661604848 0.0 0.0 0.0 0.0 0.0
 .30175310292 0.0 0.0 0.0 0.0 0.0
 .43543934218 0.0 0.0 0.0 0.0 0.0
 .23282363780 0.0 0.0 0.0 0.0 0.0
 0.0 -.26743707958E-01 0.0 0.0 0.0 0.0
 0.0 -.12654657542 0.0 0.0 0.0 0.0
 0.0 .58840346839 0.0 0.0 0.0 0.0
 0.0 .56324271589 0.0 0.0 0.0 0.0
 0.0 0.0 -.24516439508 0.0 0.0 0.0
 0.0 0.0 .74578049593 0.0 0.0 0.0
 0.0 0.0 0.0 1.0000000000 0.0 0.0
 0.0 0.0 0.0 0.0 1.0000000000 0.0
 0.0 0.0 0.0 0.0 0.0 1.0000000000
* P-type functions
    12 5
        2432.0171070
        576.12049582
        185.11584354
        69.246572556
        27.818107777
        11.420229938
        42.819661530
        6.3885901000
        2.6698993326
        1.0781783834
        .22796559371
        .62836234833E-01
 .22434065928E-02 0.0 0.0 0.0 0.0
 .18342265336E-01 0.0 0.0 0.0 0.0
 .87279697167E-01 0.0 0.0 0.0 0.0
 .25684868351 0.0 0.0 0.0 0.0
 .42398378107 0.0 0.0 0.0 0.0
 .25701340043 0.0 0.0 0.0 0.0
 0.0 -.19326519119E-01 0.0 0.0 0.0
 0.0 .31571386917 0.0 0.0 0.0
 0.0 .57617792822 0.0 0.0 0.0
 0.0 0.0 1.0000000000 0.0 0.0
 0.0 0.0 0.0 1.0000000000 0.0
 0.0 0.0 0.0 0.0 1.0000000000
* D-type functions
    7 3
        103.92331829
        30.371094389
        10.872078097
        4.1549137954
        1.5345659145
        .51114263830
        .207
 .11464613652E-01 0.0 0.0
 .73625747383E-01 0.0 0.0
 .23505107382 0.0 0.0
 .40318563513 0.0 0.0
 .40824748152 0.0 0.0
 0.0 .20502439263 0.0
 0.0 0.0 1.000

/Ge.TZVP..17s12p7d.6s5p3d.
Reference none
GE       (17s12p7d) -> [6s5p3d]

	32.000000 2
* S-type functions
    17 6
        466115.00592
        69875.420762
        15903.276716
        4501.8233453
        1466.0570924
        527.07841728
        205.00395074
        81.251596065
        505.74661282
        156.96593744
        25.761448176
        11.106654687
        17.272059104
        2.9438289048
        1.2839164916
        .25873337445
        .93524913177E-01
 .22487264660E-03 0.0 0.0 0.0 0.0 0.0
 .17435426729E-02 0.0 0.0 0.0 0.0 0.0
 .90691482206E-02 0.0 0.0 0.0 0.0 0.0
 .36906174685E-01 0.0 0.0 0.0 0.0 0.0
 .12050167907 0.0 0.0 0.0 0.0 0.0
 .28748641703 0.0 0.0 0.0 0.0 0.0
 .41622321885 0.0 0.0 0.0 0.0 0.0
 .22397845695 0.0 0.0 0.0 0.0 0.0
 0.0 -.25184609291E-01 0.0 0.0 0.0 0.0
 0.0 -.11898929721 0.0 0.0 0.0 0.0
 0.0 .54930135870 0.0 0.0 0.0 0.0
 0.0 .52939309129 0.0 0.0 0.0 0.0
 0.0 0.0 -.22854595728 0.0 0.0 0.0
 0.0 0.0 .68377930317 0.0 0.0 0.0
 0.0 0.0 0.0 1.0000000000 0.0 0.0
 0.0 0.0 0.0 0.0 1.0000000000 0.0
 0.0 0.0 0.0 0.0 0.0 1.0000000000
* P-type functions
    12 5
        2633.9346241
        624.00161628
        200.58528404
        75.097081525
        30.214388474
        12.440087567
        45.981316002
        6.9945654416
        2.9686001327
        1.2320988495
        .28981614974
        .85564606447E-01
 .22143925310E-02 0.0 0.0 0.0 0.0
 .18140899141E-01 0.0 0.0 0.0 0.0
 .86632184922E-01 0.0 0.0 0.0 0.0
 .25649020592 0.0 0.0 0.0 0.0
 .42658611262 0.0 0.0 0.0 0.0
 .26200527313 0.0 0.0 0.0 0.0
 0.0 -.20321767678E-01 0.0 0.0 0.0
 0.0 .32013744527 0.0 0.0 0.0
 0.0 .59051014555 0.0 0.0 0.0
 0.0 0.0 1.0000000000 0.0 0.0
 0.0 0.0 0.0 1.0000000000 0.0
 0.0 0.0 0.0 0.0 1.0000000000
* D-type functions
    7 3
        119.44887581
        35.062915293
        12.636924529
        4.8888672922
        1.8453195392
        .63571158892
        .246
 .10586544521E-01 0.0 0.0
 .69601280945E-01 0.0 0.0
 .22807035287 0.0 0.0
 .40301067220 0.0 0.0
 .41304847015 0.0 0.0
 0.0 .19639209740 0.0
 0.0 0.0 1.000

/K.TZVP..17s11p.6s4p.
Reference none
K       (17s11p) -> [6s4p]

	19.000000 1
* S-type functions
    17 6
        153976.18325
        23082.497672
        5253.2344745
        1486.9550133
        484.06333726
        173.56653980
        67.116381464
        26.339502054
        172.87693567
        53.058649063
        7.9212753964
        3.2108880472
        4.5662070895
        .70209907282
        .28258942635
        .35805824617E-01
        .15819213245E-01
 .23662636107E-03 0.0 0.0 0.0 0.0 0.0
 .18342929137E-02 0.0 0.0 0.0 0.0 0.0
 .95310527769E-02 0.0 0.0 0.0 0.0 0.0
 .38638406980E-01 0.0 0.0 0.0 0.0 0.0
 .12480768502 0.0 0.0 0.0 0.0 0.0
 .29278861009 0.0 0.0 0.0 0.0 0.0
 .40633425860 0.0 0.0 0.0 0.0 0.0
 .20077215860 0.0 0.0 0.0 0.0 0.0
 0.0 -.24200960936E-01 0.0 0.0 0.0 0.0
 0.0 -.11553095040 0.0 0.0 0.0 0.0
 0.0 .57455545175 0.0 0.0 0.0 0.0
 0.0 .57023185107 0.0 0.0 0.0 0.0
 0.0 0.0 -.22615763466 0.0 0.0 0.0
 0.0 0.0 .75528392045 0.0 0.0 0.0
 0.0 0.0 0.0 1.0000000000 0.0 0.0
 0.0 0.0 0.0 0.0 1.0000000000 0.0
 0.0 0.0 0.0 0.0 0.0 1.0000000000
* P-type functions
    11 4
        728.18449873
        172.13265061
        54.829847075
        20.166266494
        7.8610728806
        3.1105213132
        11.757337492
        1.5139617411
        .58328591795
        .21570478076
        .041737
 .26150689792E-02 0.0 0.0 0.0
 .20673630835E-01 0.0 0.0 0.0
 .93205603870E-01 0.0 0.0 0.0
 .25436518210 0.0 0.0 0.0
 .39131132810 0.0 0.0 0.0
 .22481345943 0.0 0.0 0.0
 0.0 -.25777289217E-01 0.0 0.0
 0.0 .57359428604 0.0 0.0
 0.0 1.0798320002 0.0 0.0
 0.0 0.0 1.0000000000 0.0
 0.0 0.0 0.0 1.000000

/Kr.TZVP..17s13p7d.6s5p3d.
Reference none
KR       (17s13p7d) -> [6s5p3d]

	36.000000 2
* S-type functions
    17 6
        600250.97575
        89976.650781
        20476.814225
        5796.1554078
        1887.5913196
        679.11458519
        264.38244511
        104.88368574
        641.47370764
        199.57524820
        33.545462954
        14.683955144
        22.603101860
        4.0650682991
        1.9611027060
        .52465147979
        .19332399511
 .23740610399E-03 0.0 0.0 0.0 0.0 0.0
 .18410240539E-02 0.0 0.0 0.0 0.0 0.0
 .95795580699E-02 0.0 0.0 0.0 0.0 0.0
 .39020650488E-01 0.0 0.0 0.0 0.0 0.0
 .12772645628 0.0 0.0 0.0 0.0 0.0
 .30596521300 0.0 0.0 0.0 0.0 0.0
 .44857474437 0.0 0.0 0.0 0.0 0.0
 .24722957327 0.0 0.0 0.0 0.0 0.0
 0.0 -.26745279805E-01 0.0 0.0 0.0 0.0
 0.0 -.12571122567 0.0 0.0 0.0 0.0
 0.0 .56483736390 0.0 0.0 0.0 0.0
 0.0 .55972765539 0.0 0.0 0.0 0.0
 0.0 0.0 -.25298771800 0.0 0.0 0.0
 0.0 0.0 .70992159965 0.0 0.0 0.0
 0.0 0.0 0.0 1.0000000000 0.0 0.0
 0.0 0.0 0.0 0.0 1.0000000000 0.0
 0.0 0.0 0.0 0.0 0.0 1.0000000000
* P-type functions
    13 5
        3232.9589614
        765.96442694
        246.33940810
        92.365283041
        37.199509551
        15.172166534
        60.931321698
        9.4792600646
        4.2564686326
        1.9729313762
        .76337108716
        .30943625526
        .11569704458
 .24885607974E-02 0.0 0.0 0.0 0.0
 .20379007428E-01 0.0 0.0 0.0 0.0
 .96977188584E-01 0.0 0.0 0.0 0.0
 .28199960954 0.0 0.0 0.0 0.0
 .45116254358 0.0 0.0 0.0 0.0
 .24917131496 0.0 0.0 0.0 0.0
 0.0 -.22173603519E-01 0.0 0.0 0.0
 0.0 .32838462778 0.0 0.0 0.0
 0.0 .58124997120 0.0 0.0 0.0
 0.0 .32863541783 0.0 0.0 0.0
 0.0 0.0 1.0000000000 0.0 0.0
 0.0 0.0 0.0 1.0000000000 0.0
 0.0 0.0 0.0 0.0 1.0000000000
* D-type functions
    7 3
        186.41760904
        55.274124345
        20.283219120
        8.0884536976
        3.2214033853
        1.1952170102
        .443
 .86120284601E-02 0.0 0.0
 .60394406304E-01 0.0 0.0
 .21181331869 0.0 0.0
 .40366293413 0.0 0.0
 .42402860686 0.0 0.0
 0.0 .17441742274 0.0
 0.0 0.0 1.000

/Li.TZVP..11s2p.5s1p.
Reference none
LI       (11s2p) -> [5s1p]

	3.000000 1
* S-type functions
    11 5
        6269.2628010
        940.31612431
        214.22107528
        60.759840184
        19.915152032
        7.3171509797
        2.9724674216
        1.2639852314
        .51427489953
        .77030885901E-01
        .28938896433E-01
 .20540968826E-03 0.0 0.0 0.0 0.0
 .15916554089E-02 0.0 0.0 0.0 0.0
 .82869829707E-02 0.0 0.0 0.0 0.0
 .33856374249E-01 0.0 0.0 0.0 0.0
 .11103225876 0.0 0.0 0.0 0.0
 .27449383329 0.0 0.0 0.0 0.0
 0.0 .23792456411 0.0 0.0 0.0
 0.0 .30765411924 0.0 0.0 0.0
 0.0 0.0 1.0000000000 0.0 0.0
 0.0 0.0 0.0 1.0000000000 0.0
 0.0 0.0 0.0 0.0 1.0000000000
* P-type functions
    2 1
        .45
        .10
 0.371
 1.00

/Mg.TZVP..14s7p.5s3p.
Reference none
MG       (14s7p) -> [5s3p]

	12.000000 1
* S-type functions
    14 5
        31438.349555
        4715.5153354
        1073.1629247
        303.57238768
        98.626251042
        34.943808417
        12.859785199
        64.876913004
        19.725520777
        2.8951804339
        1.1960454710
        .54329451156
        .10099104092
        .36865728085E-01
 .60912311326E-03 0.0 0.0 0.0 0.0
 .47066196465E-02 0.0 0.0 0.0 0.0
 .24135820657E-01 0.0 0.0 0.0 0.0
 .93628959834E-01 0.0 0.0 0.0 0.0
 .26646742093 0.0 0.0 0.0 0.0
 .47890929917 0.0 0.0 0.0 0.0
 .33698490286 0.0 0.0 0.0 0.0
 0.0 .19180889307E-01 0.0 0.0 0.0
 0.0 .90913704392E-01 0.0 0.0 0.0
 0.0 -.39563756125 0.0 0.0 0.0
 0.0 0.0 1.6827603373 0.0 0.0
 0.0 0.0 .52141091954 0.0 0.0
 0.0 0.0 0.0 1.0000000000 0.0
 0.0 0.0 0.0 0.0 1.0000000000
* P-type functions
    7 3
        179.87189612
        42.120069376
        13.120503032
        4.6257503609
        1.6695211016
        .58551012105
        .18914796195
 .53799549018E-02 0.0 0.0
 .39318014098E-01 0.0 0.0
 .15740129476 0.0 0.0
 .35919094128 0.0 0.0
 .45533379310 0.0 0.0
 0.0 .21986432910 0.0
 0.0 0.0 1.0000000000

/Mn.TZVP..17s11p6d.6s4p3d.
Reference none
MN       (17s11p6d) -> [6s4p3d]

	25.000000 2
* S-type functions
    17 6
        277185.00153
        41550.769890
        9455.9700152
        2676.5206482
        871.46687530
        312.98306420
        121.44454051
        47.922598829
        303.66723163
        93.881403187
        14.879421214
        6.2865200745
        9.4858591337
        1.5698706158
        .65903213608
        .10686292371
        .39267435433E-01
 .22838385133E-03 0.0 0.0 0.0 0.0 0.0
 .17707650375E-02 0.0 0.0 0.0 0.0 0.0
 .92077209994E-02 0.0 0.0 0.0 0.0 0.0
 .37415971825E-01 0.0 0.0 0.0 0.0 0.0
 .12164861426 0.0 0.0 0.0 0.0 0.0
 .28824392499 0.0 0.0 0.0 0.0 0.0
 .41041600847 0.0 0.0 0.0 0.0 0.0
 .21372375145 0.0 0.0 0.0 0.0 0.0
 0.0 -.24589926140E-01 0.0 0.0 0.0 0.0
 0.0 -.11602608038 0.0 0.0 0.0 0.0
 0.0 .55112059677 0.0 0.0 0.0 0.0
 0.0 .53707560756 0.0 0.0 0.0 0.0
 0.0 0.0 -.22889262695 0.0 0.0 0.0
 0.0 0.0 .71196169587 0.0 0.0 0.0
 0.0 0.0 0.0 1.0000000000 0.0 0.0
 0.0 0.0 0.0 0.0 1.0000000000 0.0
 0.0 0.0 0.0 0.0 0.0 1.0000000000
* P-type functions
    11 4
        1444.7978182
        342.06551197
        109.58400891
        40.747988173
        16.188626566
        6.5484505964
        25.357086437
        3.4830168782
        1.3858800906
        .52555094893
        .127650
 .23994136455E-02 0.0 0.0 0.0
 .19369286864E-01 0.0 0.0 0.0
 .90236108988E-01 0.0 0.0 0.0
 .25745467851 0.0 0.0 0.0
 .41272351958 0.0 0.0 0.0
 .24087700007 0.0 0.0 0.0
 0.0 -.28707174058E-01 0.0 0.0
 0.0 .55208100712 0.0 0.0
 0.0 .97226901379 0.0 0.0
 0.0 0.0 1.0000000000 0.0
 0.0 0.0 0.0 1.000000
* D-type functions
    6 3
        56.563189119
        16.278734711
        5.6964273914
        2.1411147942
        .78291801938
        .25952311214
 .11543245294532D-01 0.0 0.0
 .70299845987196D-01 0.0 0.0
 .22450770821295 0.0 0.0
 .39703065434226 0.0 0.0
 0.0 .41941039165375 0.0
 0.0 0.0 .21887261672743

/N.TZVP..11s6p1d.5s3p1d.
Reference none
N       (11s6p1d) -> [5s3p1d]

	7.000000 2
* S-type functions
    11 5
        19730.800647
        2957.8958745
        673.22133595
        190.68249494
        62.295441898
        22.654161182
        8.9791477428
        3.6863002370
        .84660076805
        .33647133771
        .13647653675
 .21887984991E-03 0.0 0.0 0.0 0.0
 .16960708803E-02 0.0 0.0 0.0 0.0
 .87954603538E-02 0.0 0.0 0.0 0.0
 .35359382605E-01 0.0 0.0 0.0 0.0
 .11095789217 0.0 0.0 0.0 0.0
 .24982972552 0.0 0.0 0.0 0.0
 0.0 .40623896148 0.0 0.0 0.0
 0.0 .24338217176 0.0 0.0 0.0
 0.0 0.0 1.0000000000 0.0 0.0
 0.0 0.0 0.0 1.0000000000 0.0
 0.0 0.0 0.0 0.0 1.0000000000
* P-type functions
    6 3
        49.200380510
        11.346790537
        3.4273972411
        1.1785525134
        .41642204972
        .14260826011
 .55552416751E-02 0.0 0.0
 .38052379723E-01 0.0 0.0
 .14953671029 0.0 0.0
 .34949305230 0.0 0.0
 0.0 .45843153697 0.0
 0.0 0.0 .24428771672
* D-type functions
    1 1
        1.00
 1.00

/Na.TZVP..14s7p.5s3p.
Reference none
NA       (14s7p) -> [5s3p]

	11.000000 1
* S-type functions
    14 5
        26041.109927
        3906.1268548
        888.97454993
        251.45497961
        81.650143512
        28.904158401
        10.625782932
        53.769410179
        16.308243025
        2.3730384125
        .95730772603
        .40806460959
        .49967582329E-01
        .19268616250E-01
 .61806342811E-03 0.0 0.0 0.0 0.0
 .47748604414E-02 0.0 0.0 0.0 0.0
 .24471684829E-01 0.0 0.0 0.0 0.0
 .94755394977E-01 0.0 0.0 0.0 0.0
 .26867496920 0.0 0.0 0.0 0.0
 .47925475440 0.0 0.0 0.0 0.0
 .33248591469 0.0 0.0 0.0 0.0
 0.0 .19527731872E-01 0.0 0.0 0.0
 0.0 .92648010794E-01 0.0 0.0 0.0
 0.0 -.39938670172 0.0 0.0 0.0
 0.0 0.0 1.6428595391 0.0 0.0
 0.0 0.0 .55692596966 0.0 0.0
 0.0 0.0 0.0 1.0000000000 0.0
 0.0 0.0 0.0 0.0 1.0000000000
* P-type functions
    7 3
        138.07979989
        32.232700393
        9.9816075360
        3.4822033928
        1.2299134620
        .41743959423
        .052
 .57951891929E-02 0.0 0.0
 .41620846251E-01 0.0 0.0
 .16281916885 0.0 0.0
 .36011784647 0.0 0.0
 .44858979889 0.0 0.0
 0.0 .23040759559 0.0
 0.0 0.0 1.00

/Ne.TZVP..11s6p1d.5s3p1d.
Reference none
NE       (11s6p1d) -> [5s3p1d]

	10.000000 2
* S-type functions
    11 5
        45069.464022
        6755.9768656
        1537.6502864
        435.51697667
        142.28655638
        51.692153804
        20.315870490
        8.2021942646
        1.9681276278
        .77904756001
        .30229502043
 .21687155182E-03 0.0 0.0 0.0 0.0
 .16812736757E-02 0.0 0.0 0.0 0.0
 .87356062782E-02 0.0 0.0 0.0 0.0
 .35361266922E-01 0.0 0.0 0.0 0.0
 .11321521454 0.0 0.0 0.0 0.0
 .26654653104 0.0 0.0 0.0 0.0
 0.0 .39631959951 0.0 0.0 0.0
 0.0 .25582811251 0.0 0.0 0.0
 0.0 0.0 1.0000000000 0.0 0.0
 0.0 0.0 0.0 1.0000000000 0.0
 0.0 0.0 0.0 0.0 1.0000000000
* P-type functions
    6 3
        99.782996032
        23.176124101
        7.1163945872
        2.4418711435
        .83389605766
        .26607311301
 .65569234163E-02 0.0 0.0
 .45888009138E-01 0.0 0.0
 .17331287812 0.0 0.0
 .36475267512 0.0 0.0
 0.0 .43831075171 0.0
 0.0 0.0 .24160029835
* D-type functions
    1 1
        1.888
 1.000

/Ni.TZVP..17s11p6d.6s4p3d.
Reference none
NI       (17s11p6d) -> [6s4p3d]

	28.000000 2
* S-type functions
    17 6
        351535.72935
        52695.809283
        11992.468293
        3394.5776689
        1105.3594585
        397.14677769
        154.27542974
        61.018723780
        384.45559739
        119.04879199
        19.137012223
        8.1526718562
        12.579408642
        2.0870866081
        .86432568555
        .13283169217
        .46845327726E-01
 .22529386884E-03 0.0 0.0 0.0 0.0 0.0
 .17468616223E-02 0.0 0.0 0.0 0.0 0.0
 .90849992136E-02 0.0 0.0 0.0 0.0 0.0
 .36940748447E-01 0.0 0.0 0.0 0.0 0.0
 .12032819950 0.0 0.0 0.0 0.0 0.0
 .28596715057 0.0 0.0 0.0 0.0 0.0
 .40983020196 0.0 0.0 0.0 0.0 0.0
 .21620642851 0.0 0.0 0.0 0.0 0.0
 0.0 -.24651279268E-01 0.0 0.0 0.0 0.0
 0.0 -.11658505277 0.0 0.0 0.0 0.0
 0.0 .54864126676 0.0 0.0 0.0 0.0
 0.0 .52640051122 0.0 0.0 0.0 0.0
 0.0 0.0 -.22797884293 0.0 0.0 0.0
 0.0 0.0 .70703738215 0.0 0.0 0.0
 0.0 0.0 0.0 1.0000000000 0.0 0.0
 0.0 0.0 0.0 0.0 1.0000000000 0.0
 0.0 0.0 0.0 0.0 0.0 1.0000000000
* P-type functions
    11 4
        1883.0907486
        445.95155320
        143.08430815
        53.372920722
        21.321919357
        8.6643561994
        34.144255211
        4.7122455921
        1.8709231845
        .70370016267
        .146588
 .23748258443E-02 0.0 0.0 0.0
 .19289457172E-01 0.0 0.0 0.0
 .90718211507E-01 0.0 0.0 0.0
 .26181414117 0.0 0.0 0.0
 .42309149832 0.0 0.0 0.0
 .24641686015 0.0 0.0 0.0
 0.0 -.29677129163E-01 0.0 0.0
 0.0 .55616824096 0.0 0.0
 0.0 .96357766460 0.0 0.0
 0.0 0.0 1.0000000000 0.0
 0.0 0.0 0.0 1.000000
* D-type functions
    6 3
        74.591603465
        21.590632752
        7.6246142580
        2.8632206762
        1.0311063388
        .33060760691
 .12077454672E-01 0.0 0.0
 .74637262154E-01 0.0 0.0
 .23236775502 0.0 0.0
 .39042651680 0.0 0.0
 0.0 .39509498921 0.0
 0.0 0.0 .21138769167

/O.TZVP..11s6p1d.5s3p1d.
Reference none
O       (11s6p1d) -> [5s3p1d]

	8.000000 2
* S-type functions
    11 5
        27032.382631
        4052.3871392
        922.32722710
        261.24070989
        85.354641351
        31.035035245
        12.260860728
        4.9987076005
        1.1703108158
        .46474740994
        .18504536357
 .21726302465E-03 0.0 0.0 0.0 0.0
 .16838662199E-02 0.0 0.0 0.0 0.0
 .87395616265E-02 0.0 0.0 0.0 0.0
 .35239968808E-01 0.0 0.0 0.0 0.0
 .11153519115 0.0 0.0 0.0 0.0
 .25588953961 0.0 0.0 0.0 0.0
 0.0 .39768730901 0.0 0.0 0.0
 0.0 .24627849430 0.0 0.0 0.0
 0.0 0.0 1.0000000000 0.0 0.0
 0.0 0.0 0.0 1.0000000000 0.0
 0.0 0.0 0.0 0.0 1.0000000000
* P-type functions
    6 3
        63.274954801
        14.627049379
        4.4501223456
        1.5275799647
        .52935117943
        .17478421270
 .60685103418E-02 0.0 0.0
 .41912575824E-01 0.0 0.0
 .16153841088 0.0 0.0
 .35706951311 0.0 0.0
 0.0 .44794207502 0.0
 0.0 0.0 .24446069663
* D-type functions
    1 1
        1.20
 1.00

/P.TZVP..14s9p1d.5s4p1d.
Reference none
P       (14s9p1d) -> [5s4p1d]

	15.000000 2
* S-type functions
    14 5
        52426.999233
        7863.2660552
        1789.5227333
        506.27300165
        164.60698546
        58.391918722
        21.643663201
        99.013837620
        30.550439817
        5.4537087661
        2.6503362563
        1.2726688867
        .31645005203
        .11417466938
 .55207164100E-03 0.0 0.0 0.0 0.0
 .42678595308E-02 0.0 0.0 0.0 0.0
 .21931529186E-01 0.0 0.0 0.0 0.0
 .85667168373E-01 0.0 0.0 0.0 0.0
 .24840686605 0.0 0.0 0.0 0.0
 .46336753971 0.0 0.0 0.0 0.0
 .35350558156 0.0 0.0 0.0 0.0
 0.0 .21895679958E-01 0.0 0.0 0.0
 0.0 .95650470295E-01 0.0 0.0 0.0
 0.0 -.29454270186 0.0 0.0 0.0
 0.0 0.0 1.3294381200 0.0 0.0
 0.0 0.0 .66109396473 0.0 0.0
 0.0 0.0 0.0 1.0000000000 0.0
 0.0 0.0 0.0 0.0 1.0000000000
* P-type functions
    9 4
        472.27219248
        111.58882756
        35.445936418
        12.990776875
        5.0486221658
        1.9934049566
        .66527284430
        .25516832128
        .90357762251E-01
 .25710623052E-02 0.0 0.0 0.0
 .20250297999E-01 0.0 0.0 0.0
 .91580716787E-01 0.0 0.0 0.0
 .25749454014 0.0 0.0 0.0
 .42862899758 0.0 0.0 0.0
 .34359817849 0.0 0.0 0.0
 0.0 1.0000000000 0.0 0.0
 0.0 0.0 1.0000000000 0.0
 0.0 0.0 0.0 1.0000000000
* D-type functions
    1 1
        .45
 1.00

/S.TZVP..14s9p1d.5s4p1d.
Reference none
S       (14s9p1d) -> [5s4p1d]

	16.000000 2
* S-type functions
    14 5
        60700.928104
        9102.6106854
        2071.4166009
        586.02476821
        190.55395021
        67.630384260
        25.127306905
        112.57463010
        34.795554217
        6.5115556215
        3.2399032261
        1.5477160881
        .40541030112
        .14550651059
 .54695944225E-03 0.0 0.0 0.0 0.0
 .42297224557E-02 0.0 0.0 0.0 0.0
 .21747824159E-01 0.0 0.0 0.0 0.0
 .85100053589E-01 0.0 0.0 0.0 0.0
 .24799128459 0.0 0.0 0.0 0.0
 .46703640406 0.0 0.0 0.0 0.0
 .36434587550 0.0 0.0 0.0 0.0
 0.0 .21670040240E-01 0.0 0.0 0.0
 0.0 .93602301760E-01 0.0 0.0 0.0
 0.0 -.26068001422 0.0 0.0 0.0
 0.0 0.0 1.2842089435 0.0 0.0
 0.0 0.0 .66036416584 0.0 0.0
 0.0 0.0 0.0 1.0000000000 0.0
 0.0 0.0 0.0 0.0 1.0000000000
* P-type functions
    9 4
        564.36716027
        133.42624379
        42.468271189
        15.616527580
        6.1093988469
        2.4404160198
        .83882201296
        .31288746900
        .10770109004
 .24796796317E-02 0.0 0.0 0.0
 .19677930250E-01 0.0 0.0 0.0
 .89980008258E-01 0.0 0.0 0.0
 .25705880575 0.0 0.0 0.0
 .43515167292 0.0 0.0 0.0
 .34883240595 0.0 0.0 0.0
 0.0 1.0000000000 0.0 0.0
 0.0 0.0 1.0000000000 0.0
 0.0 0.0 0.0 1.0000000000
* D-type functions
    1 1
        .55
 1.00

/Sc.TZVP..17s11p6d.6s4p3d.
Reference none
SC       (17s11p6d) -> [6s4p3d]

	21.000000 2
* S-type functions
    17 6
        191612.91874
        28723.850363
        6537.0116490
        1850.3097171
        602.38855156
        216.17324766
        83.712517880
        32.908707189
        211.34393234
        65.128920139
        10.034311535
        4.1596884597
        6.0009041613
        .98255784150
        .42483192773
        .77185462096E-01
        .30147219702E-01
 .23076475942E-03 0.0 0.0 0.0 0.0 0.0
 .17890329946E-02 0.0 0.0 0.0 0.0 0.0
 .92990401140E-02 0.0 0.0 0.0 0.0 0.0
 .37739438011E-01 0.0 0.0 0.0 0.0 0.0
 .12227148359 0.0 0.0 0.0 0.0 0.0
 .28814821470 0.0 0.0 0.0 0.0 0.0
 .40517543099 0.0 0.0 0.0 0.0 0.0
 .20566019623 0.0 0.0 0.0 0.0 0.0
 0.0 -.24527991462E-01 0.0 0.0 0.0 0.0
 0.0 -.11570158142 0.0 0.0 0.0 0.0
 0.0 .55995283317 0.0 0.0 0.0 0.0
 0.0 .56087765073 0.0 0.0 0.0 0.0
 0.0 0.0 -.22840494325 0.0 0.0 0.0
 0.0 0.0 .71948970378 0.0 0.0 0.0
 0.0 0.0 0.0 1.0000000000 0.0 0.0
 0.0 0.0 0.0 0.0 1.0000000000 0.0
 0.0 0.0 0.0 0.0 0.0 1.0000000000
* P-type functions
    11 4
        947.34122823
        224.09699732
        71.560334882
        26.444824490
        10.393798285
        4.1606304559
        15.565737135
        2.1121544865
        .84184709021
        .32297542652
        .089748
 .24737208744E-02 0.0 0.0 0.0
 .19742967060E-01 0.0 0.0 0.0
 .90357147549E-01 0.0 0.0 0.0
 .25201602503 0.0 0.0 0.0
 .39675535929 0.0 0.0 0.0
 .23208624517 0.0 0.0 0.0
 0.0 -.27129423974E-01 0.0 0.0
 0.0 .55109256629 0.0 0.0
 0.0 1.0090635806 0.0 0.0
 0.0 0.0 1.0000000000 0.0
 0.0 0.0 0.0 1.000000
* D-type functions
    6 3
        30.989390993
        8.6905465069
        2.9520256337
        1.0761910745
        .38338915095
        .12534686113
 .11902837431E-01 0.0 0.0
 .67655856850E-01 0.0 0.0
 .21332539722 0.0 0.0
 .38391075578 0.0 0.0
 0.0 .43354716259 0.0
 0.0 0.0 .24509263822

/Se.TZVP..17s13p7d.6s5p3d.
Reference none
SE       (17s13p7d) -> [6s5p3d]

	34.000000 2
* S-type functions
    17 6
        531071.66696
        79603.044117
        18115.844240
        5127.8923194
        1669.9130839
        600.57534527
        233.70021247
        92.672443932
        571.57513675
        177.63686375
        29.517767052
        12.824399795
        19.848235841
        3.4744018486
        1.5988910849
        .38333469387
        .14049742459
 .24108973168E-03 0.0 0.0 0.0 0.0 0.0
 .18696431441E-02 0.0 0.0 0.0 0.0 0.0
 .97271616536E-02 0.0 0.0 0.0 0.0 0.0
 .39604793031E-01 0.0 0.0 0.0 0.0 0.0
 .12948855136 0.0 0.0 0.0 0.0 0.0
 .30959437289 0.0 0.0 0.0 0.0 0.0
 .45115769216 0.0 0.0 0.0 0.0 0.0
 .24579189033 0.0 0.0 0.0 0.0 0.0
 0.0 -.26895707881E-01 0.0 0.0 0.0 0.0
 0.0 -.12670989353 0.0 0.0 0.0 0.0
 0.0 .57699001719 0.0 0.0 0.0 0.0
 0.0 .56369075408 0.0 0.0 0.0 0.0
 0.0 0.0 -.25132415534 0.0 0.0 0.0
 0.0 0.0 .72905416980 0.0 0.0 0.0
 0.0 0.0 0.0 1.0000000000 0.0 0.0
 0.0 0.0 0.0 0.0 1.0000000000 0.0
 0.0 0.0 0.0 0.0 0.0 1.0000000000
* P-type functions
    13 5
        2815.3500566
        666.92558298
        214.34213188
        80.246687942
        32.251081288
        13.106432562
        53.366108516
        8.1827777195
        3.6239945672
        1.6341591401
        .58418320228
        .23966269279
        .88785134803E-01
 .25569026854E-02 0.0 0.0 0.0 0.0
 .20874026901E-01 0.0 0.0 0.0 0.0
 .98772096250E-01 0.0 0.0 0.0 0.0
 .28471821221 0.0 0.0 0.0 0.0
 .45003584934 0.0 0.0 0.0 0.0
 .24416091055 0.0 0.0 0.0 0.0
 0.0 -.21558456273E-01 0.0 0.0 0.0
 0.0 .32662310638 0.0 0.0 0.0
 0.0 .57740499319 0.0 0.0 0.0
 0.0 .34301320826 0.0 0.0 0.0
 0.0 0.0 1.0000000000 0.0 0.0
 0.0 0.0 0.0 1.0000000000 0.0
 0.0 0.0 0.0 0.0 1.0000000000
* D-type functions
    7 3
        151.82910279
        44.839992523
        16.328999510
        6.4305057612
        2.5048025169
        .90271148434
        .338
 .93970276988E-02 0.0 0.0
 .64086503991E-01 0.0 0.0
 .21834238004 0.0 0.0
 .40314789649 0.0 0.0
 .41966491490 0.0 0.0
 0.0 .18366663432 0.0
 0.0 0.0 1.000

/Si.TZVP..14s9p1d.5s4p1d.
Reference none
SI       (14s9p1d) -> [5s4p1d]

	14.000000 2
* S-type functions
    14 5
        44773.358078
        6717.1992104
        1528.8960325
        432.54746585
        140.61505226
        49.857636724
        18.434974885
        86.533886111
        26.624606846
        4.4953057159
        2.1035045710
        1.0106094922
        .23701751489
        .85703405362E-01
 .55914765868E-03 0.0 0.0 0.0 0.0
 .43206040189E-02 0.0 0.0 0.0 0.0
 .22187096460E-01 0.0 0.0 0.0 0.0
 .86489249116E-01 0.0 0.0 0.0 0.0
 .24939889716 0.0 0.0 0.0 0.0
 .46017197366 0.0 0.0 0.0 0.0
 .34250236575 0.0 0.0 0.0 0.0
 0.0 .21300063007E-01 0.0 0.0 0.0
 0.0 .94676139318E-01 0.0 0.0 0.0
 0.0 -.32616264859 0.0 0.0 0.0
 0.0 0.0 1.3980803850 0.0 0.0
 0.0 0.0 .63865786699 0.0 0.0
 0.0 0.0 0.0 1.0000000000 0.0
 0.0 0.0 0.0 0.0 1.0000000000
* P-type functions
    9 4
        394.47503628
        93.137683104
        29.519608742
        10.781663791
        4.1626574778
        1.6247972989
        .54306660493
        .20582073956
        .70053487306E-01
 .26285693959E-02 0.0 0.0 0.0
 .20556257749E-01 0.0 0.0 0.0
 .92070262801E-01 0.0 0.0 0.0
 .25565889739 0.0 0.0 0.0
 .42111707185 0.0 0.0 0.0
 .34401746318 0.0 0.0 0.0
 0.0 1.0000000000 0.0 0.0
 0.0 0.0 1.0000000000 0.0
 0.0 0.0 0.0 1.0000000000
* D-type functions
    1 1
        .35
 1.00

/Ti.TZVP..17s11p6d.6s4p3d.
Reference none
TI       (17s11p6d) -> [6s4p3d]

	22.000000 2
* S-type functions
    17 6
        211575.69025
        31714.945058
        7217.5476543
        2042.9394247
        665.12896208
        238.74942264
        92.508691001
        36.403919209
        232.72624607
        71.791209711
        11.158534615
        4.6548135416
        6.8034629174
        1.1201076403
        .48080118839
        .85157274977E-01
        .32657477046E-01
 .23318151011E-03 0.0 0.0 0.0 0.0 0.0
 .18079690851E-02 0.0 0.0 0.0 0.0 0.0
 .93984311352E-02 0.0 0.0 0.0 0.0 0.0
 .38156853618E-01 0.0 0.0 0.0 0.0 0.0
 .12374757197 0.0 0.0 0.0 0.0 0.0
 .29208551143 0.0 0.0 0.0 0.0 0.0
 .41226800855 0.0 0.0 0.0 0.0 0.0
 .21090534061 0.0 0.0 0.0 0.0 0.0
 0.0 -.24920140738E-01 0.0 0.0 0.0 0.0
 0.0 -.11746490087 0.0 0.0 0.0 0.0
 0.0 .56503342318 0.0 0.0 0.0 0.0
 0.0 .56211101812 0.0 0.0 0.0 0.0
 0.0 0.0 -.23011425503 0.0 0.0 0.0
 0.0 0.0 .72103186735 0.0 0.0 0.0
 0.0 0.0 0.0 1.0000000000 0.0 0.0
 0.0 0.0 0.0 0.0 1.0000000000 0.0
 0.0 0.0 0.0 0.0 0.0 1.0000000000
* P-type functions
    11 4
        1063.1474732
        251.56507061
        80.408554854
        29.768193269
        11.736830556
        4.7142375230
        17.796803704
        2.4272698680
        .96823445537
        .37056694165
        .101561
 .24690839320E-02 0.0 0.0 0.0
 .19773345523E-01 0.0 0.0 0.0
 .90987976672E-01 0.0 0.0 0.0
 .25559900413 0.0 0.0 0.0
 .40489386764 0.0 0.0 0.0
 .23693402558 0.0 0.0 0.0
 0.0 -.27878639615E-01 0.0 0.0
 0.0 .55672914668 0.0 0.0
 0.0 1.0055447350 0.0 0.0
 0.0 0.0 1.0000000000 0.0
 0.0 0.0 0.0 1.000000
* D-type functions
    6 3
        37.713384723
        10.692931184
        3.6728446990
        1.3588590303
        .49213295253
        .16330520653
 .11513835092E-01 0.0 0.0
 .67246343996E-01 0.0 0.0
 .21484207775 0.0 0.0
 .38890892779 0.0 0.0
 0.0 .43040835243 0.0
 0.0 0.0 .23253305465

/V.TZVP..17s11p6d.6s4p3d.
Reference none
V       (17s11p6d) -> [6s4p3d]

	23.000000 2
* S-type functions
    17 6
        232340.65058
        34828.841170
        7926.5448691
        2243.7733046
        730.59322944
        262.32219631
        101.70403805
        40.064784617
        255.24014968
        78.804646961
        12.340598946
        5.1742019219
        7.6513894469
        1.2639759898
        .53861761721
        .92719296124E-01
        .34998055176E-01
 .23072410092E-03 0.0 0.0 0.0 0.0 0.0
 .17888178962E-02 0.0 0.0 0.0 0.0 0.0
 .92992490131E-02 0.0 0.0 0.0 0.0 0.0
 .37761463347E-01 0.0 0.0 0.0 0.0 0.0
 .12255909662 0.0 0.0 0.0 0.0 0.0
 .28963508811 0.0 0.0 0.0 0.0 0.0
 .41004702955 0.0 0.0 0.0 0.0 0.0
 .21113610858 0.0 0.0 0.0 0.0 0.0
 0.0 -.24458116338E-01 0.0 0.0 0.0 0.0
 0.0 -.11527205366 0.0 0.0 0.0 0.0
 0.0 .55174749453 0.0 0.0 0.0 0.0
 0.0 .54504528489 0.0 0.0 0.0 0.0
 0.0 0.0 -.22967638286 0.0 0.0 0.0
 0.0 0.0 .71683769077 0.0 0.0 0.0
 0.0 0.0 0.0 1.0000000000 0.0 0.0
 0.0 0.0 0.0 0.0 1.0000000000 0.0
 0.0 0.0 0.0 0.0 0.0 1.0000000000
* P-type functions
    11 4
        1184.2369151
        280.23075192
        89.643627137
        33.242411253
        13.144514452
        5.2948534140
        20.175586851
        2.7605865197
        1.1008900902
        .42013310739
        .111248
 .24449826729E-02 0.0 0.0 0.0
 .19643454466E-01 0.0 0.0 0.0
 .90796949190E-01 0.0 0.0 0.0
 .25650768222 0.0 0.0 0.0
 .40815393750 0.0 0.0 0.0
 .23860378268 0.0 0.0 0.0
 0.0 -.28241489023E-01 0.0 0.0
 0.0 .55574635619 0.0 0.0
 0.0 .99319919270 0.0 0.0
 0.0 0.0 1.0000000000 0.0
 0.0 0.0 0.0 1.000000
* D-type functions
    6 3
        43.861134864
        12.516021891
        4.3313854957
        1.6138855773
        .58749573961
        .19515723011
 .11487174238E-01 0.0 0.0
 .68247153977E-01 0.0 0.0
 .21837784195 0.0 0.0
 .39245212296 0.0 0.0
 0.0 .42634466786 0.0
 0.0 0.0 .22646562601

/Zn.TZVP..17s11p6d.6s4p3d.
Reference none
ZN       (17s11p6d) -> [6s4p3d]

	30.000000 2
* S-type functions
    17 6
        405924.31028
        60846.955735
        13847.343092
        3919.6158551
        1276.3594167
        458.67254435
        178.28725246
        70.612192837
        443.88077950
        137.55875267
        22.268083479
        9.5217310606
        14.874114065
        2.4647517612
        1.0113272238
        .14919852089
        .51441872981E-01
 .22442017483E-03 0.0 0.0 0.0 0.0 0.0
 .17402086626E-02 0.0 0.0 0.0 0.0 0.0
 .90513339565E-02 0.0 0.0 0.0 0.0 0.0
 .36817341445E-01 0.0 0.0 0.0 0.0 0.0
 .12004850256 0.0 0.0 0.0 0.0 0.0
 .28576057621 0.0 0.0 0.0 0.0 0.0
 .41087462062 0.0 0.0 0.0 0.0 0.0
 .21816962456 0.0 0.0 0.0 0.0 0.0
 0.0 -.24934274984E-01 0.0 0.0 0.0 0.0
 0.0 -.11817955766 0.0 0.0 0.0 0.0
 0.0 .55367318468 0.0 0.0 0.0 0.0
 0.0 .52628934936 0.0 0.0 0.0 0.0
 0.0 0.0 -.22929955254 0.0 0.0 0.0
 0.0 0.0 .71135484742 0.0 0.0 0.0
 0.0 0.0 0.0 1.0000000000 0.0 0.0
 0.0 0.0 0.0 0.0 1.0000000000 0.0
 0.0 0.0 0.0 0.0 0.0 1.0000000000
* P-type functions
    11 4
        2205.3508534
        522.35300699
        167.73055542
        62.670045373
        25.109749456
        10.225142681
        40.713442521
        5.6247090696
        2.2279949116
        .83354741691
        .162455
 .23356240448E-02 0.0 0.0 0.0
 .19031022634E-01 0.0 0.0 0.0
 .89955758675E-01 0.0 0.0 0.0
 .26113248631 0.0 0.0 0.0
 .42348448173 0.0 0.0 0.0
 .24618926885 0.0 0.0 0.0
 0.0 -.30029667592E-01 0.0 0.0
 0.0 .55575254864 0.0 0.0
 0.0 .95581013442 0.0 0.0
 0.0 0.0 1.0000000000 0.0
 0.0 0.0 0.0 1.000000
* D-type functions
    6 3
        88.554315311
        25.721525557
        9.1278367624
        3.4312364064
        1.2308920645
        .39031845112
 .12728170015E-01 0.0 0.0
 .79394499843E-01 0.0 0.0
 .24491506805 0.0 0.0
 .40390526479 0.0 0.0
 0.0 .40158491145 0.0
 0.0 0.0 .21579805034

