"/home/lila/OpenMolcas" is not a valid MOLCAS installation
