************************************************************************
* This file is part of OpenMolcas.                                     *
*                                                                      *
* OpenMolcas is free software; you can redistribute it and/or modify   *
* it under the terms of the GNU Lesser General Public License, v. 2.1. *
* OpenMolcas is distributed in the hope that it will be useful, but it *
* is provided "as is" and without any express or implied warranties.   *
* For more details see the full text of the license in the file        *
* LICENSE or in <http://www.gnu.org/licenses/>.                        *
************************************************************************
      COMMON /SGMOPS/ VAL1(2),VAL2(2),INCX1,INCX2,INCX3,INCF1,
     &                INCF2,INCY1,INCY2,INCY3,LEN1,LEN2,
     &                NLST1,NLST2
      COMMON /SGMSTA/ NFSCA,NFDXP,NFMV,NFR1,IFTEST
