************************************************************************
* This file is part of OpenMolcas.                                     *
*                                                                      *
* OpenMolcas is free software; you can redistribute it and/or modify   *
* it under the terms of the GNU Lesser General Public License, v. 2.1. *
* OpenMolcas is distributed in the hope that it will be useful, but it *
* is provided "as is" and without any express or implied warranties.   *
* For more details see the full text of the license in the file        *
* LICENSE or in <http://www.gnu.org/licenses/>.                        *
************************************************************************
/H.cc-pVTZ..4s3p2d1f.4s3p2d1f.
Comment1
Comment2
 1.0    3
  4   4
      9.5302493300
      1.9174506200
      0.6842404900
      0.2841325600
1.0 0.0 0.0 0.0
0.0 1.0 0.0 0.0
0.0 0.0 1.0 0.0
0.0 0.0 0.0 1.0
  3  3
      2.9133232000
      1.2621205400
      0.5019977600
1.0 0.0 0.0
0.0 1.0 0.0
0.0 0.0 1.0
  2  2
      2.3135329100
      0.7129072400
1.0 0.0
0.0 1.0
  1  1
      1.6565726100
1.0000000000
/C.cc-pVTZ..10s7p5d2f1g.10s7p5d2f1g.
Comment1
Comment2
 6.0     4
 10 10
   1113.9867719000
    369.1623418000
    121.7927523200
     48.1271145400
     20.3650740000
      8.0883596900
      2.5068656600
      1.2438537400
      0.4844990000
      0.1918516000
1.0 0.0 0.0 0.0 0.0 0.0 0.0 0.0 0.0 0.0
0.0 1.0 0.0 0.0 0.0 0.0 0.0 0.0 0.0 0.0
0.0 0.0 1.0 0.0 0.0 0.0 0.0 0.0 0.0 0.0
0.0 0.0 0.0 1.0 0.0 0.0 0.0 0.0 0.0 0.0
0.0 0.0 0.0 0.0 1.0 0.0 0.0 0.0 0.0 0.0
0.0 0.0 0.0 0.0 0.0 1.0 0.0 0.0 0.0 0.0
0.0 0.0 0.0 0.0 0.0 0.0 1.0 0.0 0.0 0.0
0.0 0.0 0.0 0.0 0.0 0.0 0.0 1.0 0.0 0.0
0.0 0.0 0.0 0.0 0.0 0.0 0.0 0.0 1.0 0.0
0.0 0.0 0.0 0.0 0.0 0.0 0.0 0.0 0.0 1.0
  7  7
    102.9917624900
     28.1325940100
      9.8364318200
      3.3490545000
      1.4947618600
      0.5769010900
      0.2032006300
1.0 0.0 0.0 0.0 0.0 0.0 0.0
0.0 1.0 0.0 0.0 0.0 0.0 0.0
0.0 0.0 1.0 0.0 0.0 0.0 0.0
0.0 0.0 0.0 1.0 0.0 0.0 0.0
0.0 0.0 0.0 0.0 1.0 0.0 0.0
0.0 0.0 0.0 0.0 0.0 1.0 0.0
0.0 0.0 0.0 0.0 0.0 0.0 1.0
  5  5
     10.5940683600
      3.5997195400
      1.3355691100
      0.5194976500
      0.1995412500
1.0 0.0 0.0 0.0 0.0
0.0 1.0 0.0 0.0 0.0
0.0 0.0 1.0 0.0 0.0
0.0 0.0 0.0 1.0 0.0
0.0 0.0 0.0 0.0 1.0
  2  2
      1.1948663400
      0.4158663400
1.0 0.0
0.0 1.0
  1  1
      0.8588663400
1.0
/N.cc-pVTZ..10s7p5d2f1g.10s7p5d2f1g.
Comment1
Comment2
 7.0     4
 10 10
   1102.8622453000
    370.9804115300
    136.7355593800
     50.7558719200
     20.5356561000
      7.8318737200
      3.4784063900
      1.4552856600
      0.6306898900
      0.2727659600
1.0 0.0 0.0 0.0 0.0 0.0 0.0 0.0 0.0 0.0
0.0 1.0 0.0 0.0 0.0 0.0 0.0 0.0 0.0 0.0
0.0 0.0 1.0 0.0 0.0 0.0 0.0 0.0 0.0 0.0
0.0 0.0 0.0 1.0 0.0 0.0 0.0 0.0 0.0 0.0
0.0 0.0 0.0 0.0 1.0 0.0 0.0 0.0 0.0 0.0
0.0 0.0 0.0 0.0 0.0 1.0 0.0 0.0 0.0 0.0
0.0 0.0 0.0 0.0 0.0 0.0 1.0 0.0 0.0 0.0
0.0 0.0 0.0 0.0 0.0 0.0 0.0 1.0 0.0 0.0
0.0 0.0 0.0 0.0 0.0 0.0 0.0 0.0 1.0 0.0
0.0 0.0 0.0 0.0 0.0 0.0 0.0 0.0 0.0 1.0
  7  7
     93.5409540700
     29.5240195300
     10.9175029900
      4.3449289000
      1.8216912600
      0.7579242400
      0.2824146900
1.0 0.0 0.0 0.0 0.0 0.0 0.0
0.0 1.0 0.0 0.0 0.0 0.0 0.0
0.0 0.0 1.0 0.0 0.0 0.0 0.0
0.0 0.0 0.0 1.0 0.0 0.0 0.0
0.0 0.0 0.0 0.0 1.0 0.0 0.0
0.0 0.0 0.0 0.0 0.0 1.0 0.0
0.0 0.0 0.0 0.0 0.0 0.0 1.0
  5  5
     16.4193789300
      5.0104049400
      1.9793971900
      0.7849577200
      0.2895406600
1.0 0.0 0.0 0.0 0.0
0.0 1.0 0.0 0.0 0.0
0.0 0.0 1.0 0.0 0.0
0.0 0.0 0.0 1.0 0.0
0.0 0.0 0.0 0.0 1.0
  2  2
      1.7935424000
      0.6085424000
1.0 0.0
0.0 1.0
  1  2
      1.2325424000
1.0
/O.cc-pVTZ..10s7p5d2f1g.10s7p5d2f1g.
Comment1
Comment2
 8.0     4
 10 10
   1517.8667506000
    489.6795200800
    176.7211866500
     63.7922331400
     25.3664991300
      9.9135491200
      4.4645306600
      1.8017743700
      0.8078971100
      0.3386432700
1.0 0.0 0.0 0.0 0.0 0.0 0.0 0.0 0.0 0.0
0.0 1.0 0.0 0.0 0.0 0.0 0.0 0.0 0.0 0.0
0.0 0.0 1.0 0.0 0.0 0.0 0.0 0.0 0.0 0.0
0.0 0.0 0.0 1.0 0.0 0.0 0.0 0.0 0.0 0.0
0.0 0.0 0.0 0.0 1.0 0.0 0.0 0.0 0.0 0.0
0.0 0.0 0.0 0.0 0.0 1.0 0.0 0.0 0.0 0.0
0.0 0.0 0.0 0.0 0.0 0.0 1.0 0.0 0.0 0.0
0.0 0.0 0.0 0.0 0.0 0.0 0.0 1.0 0.0 0.0
0.0 0.0 0.0 0.0 0.0 0.0 0.0 0.0 1.0 0.0
0.0 0.0 0.0 0.0 0.0 0.0 0.0 0.0 0.0 1.0
  7  7
    120.1603092100
     34.4096224700
     12.5811486100
      5.0663824200
      2.0346927100
      0.8609296700
      0.3668135700
1.0 0.0 0.0 0.0 0.0 0.0 0.0
0.0 1.0 0.0 0.0 0.0 0.0 0.0
0.0 0.0 1.0 0.0 0.0 0.0 0.0
0.0 0.0 0.0 1.0 0.0 0.0 0.0
0.0 0.0 0.0 0.0 1.0 0.0 0.0
0.0 0.0 0.0 0.0 0.0 1.0 0.0
0.0 0.0 0.0 0.0 0.0 0.0 1.0
  5  5
     19.0430628100
      5.8060381100
      2.1891841600
      0.8779461400
      0.3562364700
1.0 0.0 0.0 0.0 0.0
0.0 1.0 0.0 0.0 0.0
0.0 0.0 1.0 0.0 0.0
0.0 0.0 0.0 1.0 0.0
0.0 0.0 0.0 0.0 1.0
  2  2
      2.4939147900
      0.8249147900
1.0 0.0
0.0 1.0
  1  1
      1.6079147900
1.0
