13
neutralIP: C6H5-OH (Phenol, Planar Cs) mp22(full)/6-31G* geom Optimized Energy = -306.523449. (HF = -305.555880).
C            .000000     .937146     .000000
C          -1.205853     .234638     .000000
C          -1.192040   -1.160372     .000000
C            .016134   -1.854562     .000000
C           1.217058   -1.141800     .000000
C           1.215222     .249837     .000000
O            .062735    2.309303     .000000
H           -.845703    2.658414     .000000
H          -2.152618     .773041     .000000
H          -2.134427   -1.702203     .000000
H            .023244   -2.940753     .000000
H           2.165461   -1.673046     .000000
H           2.139030     .820810     .000000
