10
N==C-CH2-CH2-C==N. C2h symmetry. MP2(full)/6-31G(d) Geom. Optimized Energy = -263.533832 (HF = -262.679521).
C 0.1735665357 0. 1.8696460109
N -0.2006879207 0. 2.9879986414
C 0.6073796222 0. 0.4726502275
H 1.2285556579 -0.8814486181 0.2880843631
H 1.2285556579 0.8814486181 0.2880843631
C -0.6073796222 0. -0.4726502275
H -1.2285556579 -0.8814486181 -0.2880843631
C -0.1735665357 0. -1.8696460109
H -1.2285556579 0.8814486181 -0.2880843631
N 0.2006879207 0. -2.9879986414
