11
2,5-Dihydro_thiophene. C4H6S. C2v symmetry. MP2(full)/6-31G(d) Geom. Optimized Energy = -553.117864 (HF = -552.454770).
S  0.620148567 0.9140649331 0.5727125556
C  -0.7229825735 0.9140542722 -0.6676806484
C  0.7267955711 -0.9084341232 0.6712019846
C  -1.0253338613 -0.5269577127 -0.946904673
C  -0.3044852837 -1.4331226817 -0.2811947883
H  -1.5988809416 1.4384466197 -0.2723516988
H  1.7329259685 -1.2408716109 0.3961434384
H  -0.3984549626 1.4384466197 -1.5722052525
H  0.5324999895 -1.2408716109 1.6959969921
H  -1.8004169806 -0.7878737369 -1.6627006253
H  -0.4340132602 -2.5055537372 -0.4008149928
