13
(CH3)2CH-CHO. Cs symmetry. MP2(full)/6-31G(d) Geom. Optimized Energy = -231.701956. (HF = -230.983012).
H -0.4736041683 0.422176237 2.165983149
C -1.0768876674 0.2944890986 1.2629955272
H -1.5547544588 -0.6898399061 1.3061979422
C -0.2245850345 0.4282236906 0.
H -1.8667472785 1.0506332046 1.2698865209
C 0.8342665509 -0.6427603064 0.
H 0.2990791741 1.3898045428 0.
C -1.0768876674 0.2944890986 -1.2629955272
H -1.5547544588 -0.6898399061 -1.3061979422
H -0.4736041683 0.422176237 -2.165983149
H -1.8667472785 1.0506332046 -1.2698865209
O 2.0398440973 -0.4399497633 0.
H 0.4369427692 -1.6827949952 0.
