14
C4H8O2. cyc-CH2-CH2-O-CH2-CH2-O (para). C2h symmetry. MP2(full)/6-31G(d) Geom. Optimized Energy = -306.718289 (HF = -305.822521).
H  -1.2590448958 -2.0234592204 0.2376590823
H  -1.2590448958 2.0234592204 0.2376590823
C  0.7330620423 -1.1657554003 0.1908946857
C  0.7330620423 1.1657554003 0.1908946857
H  1.2590448958 2.0234592204 -0.2376590823
C  -0.7330620423 1.1657554003 -0.1908946857
C  -0.7330620423 -1.1657554003 -0.1908946857
H  0.8268088252 -1.1972129173 1.2868697875
H  0.8268088252 1.1972129173 1.2868697875
O  1.3743679874 0. -0.3228882867
H  -0.8268088252 1.1972129173 -1.2868697875
H  -0.8268088252 -1.1972129173 -1.2868697875
O  -1.3743679874 0. 0.3228882867
H  1.2590448958 -2.0234592204 -0.2376590823
