13
Tetrahydro_thiophene. C4H8S. C2 symmetry. MP2(full)/6-31G(d) Geom. Optimized Energy = -554.318739. (HF = -553.643529).
H  1.0022298244 1.7872852429 0.006505071
S  0. 0. 1.3041323362
C  -0.0080486407 -1.3351438003 0.0539444241
C  0.3500180552 -0.6769255615 -1.2749884062
C  -0.3500180552 0.6769255615 -1.2749884062
C  0.0080486407 1.3351438003 0.0539444241
H  -0.7093314723 2.1062495881 0.342902506
H  -1.0022298244 -1.7872852429 0.006505071
H  0.7093314723 -2.1062495881 0.342902506
H  1.4337922298 -0.5293290454 -1.3361288072
H  0.04666316 -1.303551098 -2.1200735667
H  -1.4337922298 0.5293290454 -1.3361288072
H  -0.04666316 1.303551098 -2.1200735667
