14
Tetrahydropyrrole. C4H8NH. Cs symmetry. MP2(full)/6-31G(d) Geom. Optimized Energy = -211.850047. (HF = -211.144062).
H  -0.7412635216 -2.0744902604 -0.3240132783
H  -2.1397774857 0. -0.1113009422
C  -0.44603443 1.1501364844 0.1810113462
C  1.0216518405 0.7738970836 -0.055235568
C  1.0216518405 -0.7738970836 -0.055235568
C  -0.44603443 -1.1501364844 0.1810113462
N  -1.1556447926 0. -0.3794692435
H  -0.6303492204 1.278127175 1.262512507
H  -0.7412635216 2.0744902604 -0.3240132783
H  1.3569879923 1.1565042407 -1.0219328901
H  1.6755658038 1.1956987186 0.7125718157
H  1.6755658038 -1.1956987186 0.7125718157
H  1.3569879923 -1.1565042407 -1.0219328901
H  -0.6303492204 -1.278127175 1.262512507
