15
(CH3)3C-SH. t-butanethiol. Cs symm. MP2(full)/6-31G(d) Geom. Optimized Energy = -555.490687. (HF = -554.805329).
C 0 0.005734474 0. -0.3411851387
S 0 0.0304000757 0. 1.4950837968
C 0 1.4709425034 0. -0.769320501
C 0 -0.6938298788 -1.2527487814 -0.8579058064
C 0 -0.6938298788 1.2527487814 -0.8579058064
H 0 -1.3026841294 0. 1.6598749707
H 0 1.530735304 0. -1.8622964438
H 0 1.9903716021 -0.8877485558 -0.3975547973
H 0 1.9903716021 0.8877485558 -0.3975547973
H 0 -0.6698064074 -1.2670544707 -1.9534882945
H 0 -1.7417874901 -1.2780853448 -0.5433878314
H 0 -0.203055557 -2.1553727784 -0.4860769573
H 0 -0.6698064074 1.2670544707 -1.9534882945
H 0 -1.7417874901 1.2780853448 -0.5433878314
H 0 -0.203055557 2.1553727784 -0.4860769573
