12
2-methyl thiophene. cyc-CH=CH-S-CH(CH3)=CH-. Cs symmetry. MP2(full)/6-31G(d) Geom. Optimized Energy = -591.132361 (HF = -590.326929).
H  -0.3512700621 0. -2.7118710872
S  -1.1428808636 0. -0.3939046632
C  0.1050787189 0. 0.80071932
H  2.2670974561 0. 0.770052935
H  2.1492228767 0. -1.8689397141
C  -0.0095970084 0. -1.6849257063
C  1.2814546799 0. -1.2177554902
C  1.3431526337 0. 0.1994115745
C  -0.2094432234 0. 2.2634341454
H  0.7233437115 0. 2.8330790887
H  -0.7830874845 -0.8842158957 2.5574251645
H  -0.7830874845 0.8842158957 2.5574251645
