13
N-methyl pyrrole. cyc-CH=CH-N(CH3)-CH=CH-. Cs symmetry. MP2(full)/6-31G(d) Geom. Optimized Energy = -248.6723749 (HF = -247.836839).
H  0. 1.070507165 -2.4141971294
N  0. -0.0456562359 -0.6228754851
C  1.1191480784 -0.0160271892 0.1708767129
H  0.8866264167 -0.473414417 -2.4560520456
H  -0.8866264167 -0.473414417 -2.4560520456
C  -1.1191480784 -0.0160271892 0.1708767129
C  0. 0.0322785051 -2.0698089185
C  0.7075689754 0.0170069908 1.4902385079
H  2.1077265792 -0.0272546751 -0.2685187544
C  -0.7075689754 0.0170069908 1.4902385079
H  -2.1077265792 -0.0272546751 -0.2685187544
H  1.3585893625 0.0224980106 2.3544689933
H  -1.3585893625 0.0224980106 2.3544689933
