17
CH3-C(=O)-O-CH(CH3)2. C5H10O2 isomer. Isopropyl acetate. C1 symmetry. MP2(full)/6-31G(d) Geom. Optimized Energy = -345.946277 (HF = -344.911112).
H  -0.0944282885 1.8040568832 -2.2737682323
C  0.7019146308 1.9317161226 -1.5371172743
H  1.6529186086 2.0990004431 -2.0404230735
C  0.8031153118 0.6999313867 -0.6803064033
H  0.4458840655 2.7946456806 -0.9187498264
O  1.7871317411 -0.0130252399 -0.5785836339
O  -0.3649441696 0.4865288516 -0.025155382
C  -0.4050176748 -0.6815671958 0.8431660686
C  -0.6860211053 -1.9146468548 0.0075728324
C  -1.4834672338 -0.3860183808 1.8627558163
H  0.5732154294 -0.7709005466 1.3236207471
H  0.1182989125 -2.0779583571 -0.7114374945
H  -1.6308528339 -1.7928104328 -0.528961213
H  -0.7609178718 -2.797365105 0.6493836769
H  -1.5665137796 -1.2141348994 2.5719725324
H  -2.4478386066 -0.2550762719 1.3653226915
H  -1.2504097802 0.5260232449 2.4165260798
