16
Tetrahydro_thiopyran. C5H10S. Cs symmetry. MP2(full)/6-31G(d) Geom. Optimized Energy = -593.493039 (HF = -592.680660).
S  0.0004900849 1.5057217536 0.
C  0.0688613036 -1.7182105683 0.
C  -0.3900557144 0.371894891 1.3593915962
C  -0.3900557144 0.371894891 -1.3593915962
C  0.3870353429 -0.9357937966 1.2726388988
C  0.3870353429 -0.9357937966 -1.2726388988
H  -1.4685090932 0.1736510264 1.3676718672
H  -0.1480774726 0.908572713 2.2816047962
H  -1.4685090932 0.1736510264 -1.3676718672
H  -0.1480774726 0.908572713 -2.2816047962
H  1.4603252591 -0.7170132926 1.3116560954
H  0.1485889854 -1.5491961756 2.1506910488
H  1.4603252591 -0.7170132926 -1.3116560954
H  0.1485889854 -1.5491961756 -2.1506910488
H  0.6271648369 -2.6612415587 0.
H  -0.9965849146 -1.9862847638 0.
