12
1,3-DiFluorobenzene. C6H4F2. C2v symmetry. MP2(full)/6-31G(d) Geom. Optimized Energy = -429.529937 (HF = -428.403031).
F  2.3538775234 0. -0.9859229298
C  1.1838103885 0. -0.3044332119
C  -1.2137916312 0. 1.0837705605
C  0. 0. -1.0290693236
C  1.2137916312 0. 1.0837705605
C  0. 0. 1.7706047858
C  -1.1838103885 0. -0.3044332119
H  0. 0. -2.1131261168
H  2.1673380631 0. 1.6008475401
H  0. 0. 2.8567828172
F  -2.3538775234 0. -0.9859229298
H  -2.1673380631 0. 1.6008475401
