14
1,3-cyclohexadiene. C6H8. C2 symmetry. MP2(full)/6-31G(d) Geom. Optimized Energy = -232.6228171 (HF = -231.829545).
H  1.2581414379 0.1627748701 -2.0487963671
C  0.7248928133 -0.2397169696 -1.1813294811
C  0.7133174 0.1596591578 1.2533418136
C  -1.411086205 -0.1485527497 0.100697176
C  -0.7133174 -0.1596591578 1.2533418136
C  -0.7248928133 0.2397169696 -1.1813294811
C  1.411086205 0.1485527497 0.100697176
H  1.2013102104 0.3962202872 2.1958301035
H  -2.4800776256 -0.3484975143 0.0956496235
H  -1.2013102104 -0.3962202872 2.1958301035
H  -0.7449977178 1.3365334966 -1.2789404108
H  2.4800776256 0.3484975143 0.0956496235
H  0.7449977178 -1.3365334966 -1.2789404108
H  -1.2581414379 -0.1627748701 -2.0487963671


