18
C6H12. Cyclohexane (chair). D3d symmetry. MP2(full)/6-31G* Geom. Optimized Energy = -235.021609. (HF= -234.207157).
  C        1.45494        0.00000        0.00000
  C       -0.72747        1.26001        0.00000
  C       -0.72747       -1.26001       -0.00000
  C        0.72747       -1.26001       -0.46572
  C        0.72747        1.26001       -0.46572
  C       -1.45494       -0.00000       -0.46572
  H        1.50778        0.00000        1.09720
  H        2.48904        0.00000       -0.36431
  H       -0.75389        1.30577        1.09720
  H       -1.24452        2.15557       -0.36431
  H       -0.75389       -1.30577        1.09720
  H       -1.24452       -2.15557       -0.36431
  H        0.75389       -1.30577       -1.56292
  H        1.24452       -2.15557       -0.10141
  H        0.75389        1.30577       -1.56292
  H        1.24452        2.15557       -0.10141
  H       -1.50778       -0.00000       -1.56292
  H       -2.48904       -0.00000       -0.10141
