*-------------------------------------------------------------------------------
* Molecule: H2O2
* Basis: ANO-RCC-MB
* Symmetry: No symmetry
* Keywords tested:
* Responsible person: Roland Lindh (180210)
* Comments:
*-------------------------------------------------------------------------------

> COPY H2O2.InpOrb .

&GATEWAY
  Coord = 4

    O     0.72874234    -0.02557354     0.00000000
    O    -0.72874234     0.02557354     0.00000000
    H     0.92780942     0.80010690     0.46407928
    H    -0.92780942    -0.80010690     0.46407928
  Basis = ANO-RCC-MB
  Group = NoSym
  RICD

&SEWARD

&RASSCF
  File   = H2O2.InpOrb
  Spin   = 1
  CIRoot = 1 1 1
  Thrs   = 1.0e-10 3.0e-06 3.0e-06

> COPY $Project.JobIph JOB001

&RASSCF
  File   = H2O2.InpOrb
  Spin   = 1
  CIRoot = 3 3 ; 1 2 3 ; 0 1 1
  Thrs   = 1.0e-10 3.0e-06 3.0e-06

> COPY $Project.JobIph JOB002

&RASSCF
  File   = H2O2.InpOrb
  Spin   = 3
  CIRoot = 2 2 1
  Thrs   = 1.0e-10 3.0e-06 3.0e-06

> COPY $Project.JobIph JOB003

&RASSI
  NrOfJobIph
    3   1 2 2
    1
    2 3
    1 2
  TInt
  Subset = 1
  SpinOrbit

&RASSI
  NrOfJobIph
    3   1 2 2
    1
    2 3
    1 2
  TInt
  Subset = 2
  NFIN = 4
  SpinOrbit

> EXPORT MOLCAS_FORCE_NON_AO_TDM=ON

&RASSI
  NrOfJobIph
    3   1 2 2
    1
    2 3
    1 2
  TInt
  Subset = 1
  SpinOrbit

> FILE H2O2.InpOrb
#INPORB 2.2
#INFO
* File generated by Pegamoid from /home/ignacio/Programs/OpenMolcas/build/test/tmp/additional__419/additional__419.rasscf.h5
       0       1       0
      12
      12
*BC:HOST serrano PID 454 DATE Thu Nov 14 11:16:44 2019
#ORB
* ORBITAL    1    1
 -7.07186648692921E-01 -1.26896198691555E-03 -2.69073404010910E-04 -3.72818793445094E-04 -4.80005817507861E-04
  7.07186892148442E-01  1.26896150123756E-03 -2.69072250532034E-04 -3.72819935748506E-04  4.80006832324964E-04
  9.12763627248199E-04 -9.12763653192124E-04
* ORBITAL    1    2
  7.07146064911725E-01  1.56915955411586E-03 -1.30515470232039E-03 -6.86812187740543E-05 -2.38612177168155E-04
  7.07145821390765E-01  1.56915913637956E-03  1.30515478935213E-03  6.86813720198536E-05 -2.38612347020176E-04
 -1.85571436892243E-03 -1.85571406358585E-03
* ORBITAL    1    3
 -1.61354902771754E-02  5.45103916452687E-01  3.78749011313938E-02  1.33711107738840E-01  7.68032238835118E-02
 -1.61354902729756E-02  5.45103916444461E-01 -3.78749011225065E-02 -1.33711107860517E-01  7.68032239187522E-02
  1.36542339435414E-01  1.36542339488182E-01
* ORBITAL    1    4
 -6.59265767302445E-03  5.51517658147401E-01  9.60434906613472E-02  1.97821081368273E-01  8.75106896389160E-02
  6.59265766078638E-03 -5.51517658287310E-01  9.60434907058871E-02  1.97821081067859E-01 -8.75106894849024E-02
  2.01400028096673E-01 -2.01400027930621E-01
* ORBITAL    1    5
 -1.32276391865618E-02 -4.49067515712787E-01 -5.21164294879741E-02  4.72791835312558E-01  9.06097701252629E-02
  1.32276391311700E-02  4.49067515192111E-01 -5.21164298081330E-02  4.72791834660572E-01 -9.06097693274825E-02
  1.97103842403287E-01 -1.97103841836830E-01
* ORBITAL    1    6
 -6.57946391102280E-03 -2.87743579953277E-01  1.82527939256301E-01  2.45407776196613E-01  4.37476779929813E-01
 -6.57946555666385E-03 -2.87743580595582E-01 -1.82527939201485E-01 -2.45407777219588E-01  4.37476780158768E-01
  2.51304202746442E-01  2.51304203238846E-01
* ORBITAL    1    7
 -8.13082526427377E-03 -1.22138786618289E-02 -4.91689279821160E-01 -1.99894886136867E-01  3.91036596613324E-01
 -8.13082605641316E-03 -1.22138785975725E-02  4.91689279838987E-01  1.99894886164321E-01  3.91036596601304E-01
 -1.21293106092739E-01 -1.21293106102909E-01
* ORBITAL    1    8
  1.81353206545183E-02  2.27811393474264E-01  3.70304841327420E-01 -5.41023061983177E-01  2.22034017441944E-01
  1.81353217446491E-02  2.27811393387739E-01 -3.70304841308929E-01  5.41023062184067E-01  2.22034017468736E-01
 -1.14895995109716E-01 -1.14895995204864E-01
* ORBITAL    1    9
  1.99360509483596E-03  4.87454066337276E-02  1.31263435763543E-01  2.03367424928122E-01 -7.12972984409230E-01
 -1.99360509769197E-03 -4.87454066654248E-02  1.31263435811773E-01  2.03367424884165E-01  7.12972984377175E-01
 -1.02884305233846E-01  1.02884305254084E-01
* ORBITAL    1   10
 -3.60298773539796E-02 -4.47976936251591E-01  8.33346927514216E-01 -1.02176529940387E-01  5.88234369360473E-02
  3.60298773541035E-02  4.47976936213735E-01  8.33346927500597E-01 -1.02176529904102E-01 -5.88234369580446E-02
  6.02902647095067E-02 -6.02902646549375E-02
* ORBITAL    1   11
 -5.73370339158097E-02 -5.13932303606450E-01 -1.46536696592206E-01 -5.24950086427522E-01 -2.71370404720293E-01
 -5.73370339131837E-02 -5.13932303594764E-01  1.46536696514282E-01  5.24950086373936E-01 -2.71370404694308E-01
  8.52369297101843E-01  8.52369297005351E-01
* ORBITAL    1   12
  4.60744954159518E-02  4.05219232848715E-01  2.36179043047763E-01  5.19111729084457E-01  3.16266957565953E-01
 -4.60744954228585E-02 -4.05219232896856E-01  2.36179043065102E-01  5.19111729135569E-01 -3.16266957596723E-01
 -9.52681640294154E-01  9.52681640384401E-01
#OCC
* OCCUPATION NUMBERS
  2.00000000000000E+00  2.00000000000000E+00  2.00000000000000E+00  2.00000000000000E+00  1.99001563306904E+00
  1.98773751581927E+00  1.96247790841714E+00  1.49527313919708E+00  1.52150376485422E+00  1.04299203864325E+00
  0.00000000000000E+00  0.00000000000000E+00
#ONE
* ONE ELECTRON ENERGIES
 -2.0567E+01 -2.0567E+01 -1.4041E+00 -1.1811E+00  0.0000E+00  0.0000E+00  0.0000E+00  0.0000E+00  0.0000E+00  0.0000E+00
  4.6764E-01  5.3100E-01
#INDEX
* 1234567890
0 iiii222222
1 ss
> EOF

>>FILE checkfile
* This file is autogenerated:
* Molcas version 26.02-589-gd2c53bd42
* Linux l19.cmt.physik.tu-dortmund.de 5.14.0-611.54.1.el9_7.x86_64 #1 SMP PREEMPT_DYNAMIC Wed May 6 18:03:03 EDT 2026 x86_64 x86_64 x86_64 GNU/Linux
* Tue May 12 16:21:09 2026
*
#>>   1
#> POTNUC="36.674311710785"/12
#>>   2
#> SEWARD_MLTPL1X="1.377123438953"/5
#> SEWARD_KINETIC="158062.425000000076"/5
#> SEWARD_ATTRACT="-4147.815821322204"/5
#> POTNUC="36.674311710785"/12
#> SEWARD_MLTPL1X="1.377123438953"/5
#> SEWARD_KINETIC="29.404288386289"/5
#> SEWARD_ATTRACT="-65.060050875623"/5
#>>   3
#> RASSCF_ITER="20"/8
#> E_RASSCF="-150.812029413295"/4
#> MLTPL__0="-0.000000000000"/2
#> MLTPL__1[0]="-0.000000001767"/2
#> MLTPL__1[1]="-0.000000001299"/2
#> MLTPL__1[2]="0.750850530925"/2
#> MLTPL__2[0]="-0.498570672634"/2
#> MLTPL__2[1]="3.413412989531"/2
#> MLTPL__2[2]="-0.000000002605"/2
#> MLTPL__2[3]="1.425660411972"/2
#> MLTPL__2[4]="-0.000000000100"/2
#> MLTPL__2[5]="-0.927089739338"/2
#>>   4
#> RASSCF_ITER="9"/8
#> E_RASSCF[0]="-150.808200664573"/4
#> E_RASSCF[1]="-150.577596845911"/4
#> E_RASSCF[2]="-150.521079801020"/4
#> MLTPL__0="-0.000000000000"/2
#> MLTPL__1[0]="-0.000000000043"/2
#> MLTPL__1[1]="0.000000000016"/2
#> MLTPL__1[2]="0.678461876568"/2
#> MLTPL__2[0]="-0.512591360334"/2
#> MLTPL__2[1]="3.074736282168"/2
#> MLTPL__2[2]="0.000000000001"/2
#> MLTPL__2[3]="1.340607119165"/2
#> MLTPL__2[4]="0.000000000022"/2
#> MLTPL__2[5]="-0.828015758831"/2
#> MLTPL__0="-0.000000000000"/2
#> MLTPL__1[0]="0.000000000011"/2
#> MLTPL__1[1]="0.000000000030"/2
#> MLTPL__1[2]="0.603368032879"/2
#> MLTPL__2[0]="-1.285441187608"/2
#> MLTPL__2[1]="3.185476936667"/2
#> MLTPL__2[2]="-0.000000000029"/2
#> MLTPL__2[3]="1.265371525106"/2
#> MLTPL__2[4]="0.000000000027"/2
#> MLTPL__2[5]="0.020069662502"/2
#> MLTPL__0="-0.000000000000"/2
#> MLTPL__1[0]="0.000000000038"/2
#> MLTPL__1[1]="0.000000000010"/2
#> MLTPL__1[2]="0.766709519183"/2
#> MLTPL__2[0]="-1.384173911316"/2
#> MLTPL__2[1]="3.065469996437"/2
#> MLTPL__2[2]="0.000000000072"/2
#> MLTPL__2[3]="2.024844120188"/2
#> MLTPL__2[4]="0.000000000024"/2
#> MLTPL__2[5]="-0.640670208871"/2
#>>   5
#> RASSCF_ITER="4"/8
#> E_RASSCF[0]="-150.615385804154"/4
#> E_RASSCF[1]="-150.571931900461"/4
#> MLTPL__0="-0.000000000000"/2
#> MLTPL__1[0]="-0.000000000006"/2
#> MLTPL__1[1]="-0.000000000008"/2
#> MLTPL__1[2]="0.609762439406"/2
#> MLTPL__2[0]="-1.406813303099"/2
#> MLTPL__2[1]="3.288290151813"/2
#> MLTPL__2[2]="-0.000000000024"/2
#> MLTPL__2[3]="1.339250229673"/2
#> MLTPL__2[4]="-0.000000000016"/2
#> MLTPL__2[5]="0.067563073426"/2
#> MLTPL__0="-0.000000000000"/2
#> MLTPL__1[0]="-0.000000000008"/2
#> MLTPL__1[1]="-0.000000000041"/2
#> MLTPL__1[2]="0.746627442210"/2
#> MLTPL__2[0]="-0.872314256280"/2
#> MLTPL__2[1]="2.459206340452"/2
#> MLTPL__2[2]="0.000000000003"/2
#> MLTPL__2[3]="1.874931994444"/2
#> MLTPL__2[4]="-0.000000000017"/2
#> MLTPL__2[5]="-1.002617738164"/2
#>>   6
#> E_RASSI[0]="-150.812030120753"/4
#> E_RASSI[1]="-150.577596844735"/4
#> E_RASSI[2]="-150.521079800533"/4
#> E_RASSI[3]="-150.615385809074"/4
#> E_RASSI[4]="-150.571931906256"/4
#> TMS(SF,LEN)="0.0"/6
#> TMS(SF,LEN)="0.000286920333"/6
#> TMS(SF,LEN)="0.0"/6
#> TMS(SF,LEN)="0.004859760254"/6
#> TMS(SF,VEL)="0.0"/6
#> TMS(SF,VEL)="0.009310691231"/6
#> TMS(SF,VEL)="0.0"/6
#> TMS(SF,VEL)="0.037034718911"/6
#> ITMS(SF)="0.0"/6
#> ROTS(SF)="0.0"/4
#> ITMS(SF)="0.009311283013"/6
#> ROTS(SF)="-17.178018112273"/4
#> ITMS(SF)="0.0"/6
#> ROTS(SF)="0.0"/4
#> ITMS(SF)="0.037035763027"/6
#> ROTS(SF)="24.048035356710"/4
#> ESO_LOW[0]="-150.812030397741"/4
#> ESO_LOW[1]="-150.615388311667"/4
#> ESO_LOW[2]="-150.615388009761"/4
#> ESO_LOW[3]="-150.615386117758"/4
#> ESO_LOW[4]="-150.577615020983"/4
#> ESO_LOW[5]="-150.571930048727"/4
#> ESO_LOW[6]="-150.571929516076"/4
#> ESO_LOW[7]="-150.571913642514"/4
#> ESO_LOW[8]="-150.521078846785"/4
#> TMS(SO,LEN)="0.000000001937"/6
#> TMS(SO,LEN)="0.000000001990"/6
#> TMS(SO,LEN)="0.000000023062"/6
#> TMS(SO,LEN)="0.000285979685"/6
#> TMS(SO,LEN)="0.000000013746"/6
#> TMS(SO,LEN)="0.000000000065"/6
#> TMS(SO,LEN)="0.000000938827"/6
#> TMS(SO,LEN)="0.004859717818"/6
#> TMS(SO,VEL)="0.000000127815"/6
#> TMS(SO,VEL)="0.000000000196"/6
#> TMS(SO,VEL)="0.000000139743"/6
#> TMS(SO,VEL)="0.009281703861"/6
#> TMS(SO,VEL)="0.000000372040"/6
#> TMS(SO,VEL)="0.000000002284"/6
#> TMS(SO,VEL)="0.000028979064"/6
#> TMS(SO,VEL)="0.037034023965"/6
#> ITMS(SO)="0.000000127849"/6
#> ROTS(SO)="-0.000285989310"/4
#> ITMS(SO)="0.000000000196"/6
#> ROTS(SO)="-0.000000445184"/4
#> ITMS(SO)="0.000000139731"/6
#> ROTS(SO)="0.000216513751"/4
#> ITMS(SO)="0.009282304800"/6
#> ROTS(SO)="-17.127983864920"/4
#> ITMS(SO)="0.000000371412"/6
#> ROTS(SO)="0.000620164389"/4
#> ITMS(SO)="0.000000002398"/6
#> ROTS(SO)="0.000032661998"/4
#> ITMS(SO)="0.000028969712"/6
#> ROTS(SO)="-0.050136946794"/4
#> ITMS(SO)="0.037035068678"/6
#> ROTS(SO)="24.047337465108"/4
#>>   7
#> E_RASSI[0]="-150.812030120753"/4
#> E_RASSI[1]="-150.577596844735"/4
#> E_RASSI[2]="-150.521079800533"/4
#> E_RASSI[3]="-150.615385809074"/4
#> E_RASSI[4]="-150.571931906256"/4
#> TMS(SF,LEN)="0.000286920333"/6
#> TMS(SF,LEN)="0.0"/6
#> TMS(SF,LEN)="0.004859760254"/6
#> TMS(SF,LEN)="0.0"/6
#> TMS(SF,LEN)="0.001564370576"/6
#> TMS(SF,LEN)="0.0"/6
#> TMS(SF,VEL)="0.009310691231"/6
#> TMS(SF,VEL)="0.0"/6
#> TMS(SF,VEL)="0.037034718911"/6
#> TMS(SF,VEL)="0.0"/6
#> TMS(SF,VEL)="0.028774279432"/6
#> TMS(SF,VEL)="0.0"/6
#> ITMS(SF)="0.009311283013"/6
#> ROTS(SF)="-17.178018112273"/4
#> ITMS(SF)="0.0"/6
#> ROTS(SF)="0.0"/4
#> ITMS(SF)="0.037035763027"/6
#> ROTS(SF)="24.048035356710"/4
#> ITMS(SF)="0.0"/6
#> ROTS(SF)="0.0"/4
#> ITMS(SF)="0.028774650952"/6
#> ROTS(SF)="-119.060328687706"/4
#> ITMS(SF)="0.0"/6
#> ROTS(SF)="0.0"/4
#> ESO_LOW[0]="-150.812030397741"/4
#> ESO_LOW[1]="-150.615388311667"/4
#> ESO_LOW[2]="-150.615388009761"/4
#> ESO_LOW[3]="-150.615386117758"/4
#> ESO_LOW[4]="-150.577615020983"/4
#> ESO_LOW[5]="-150.571930048727"/4
#> ESO_LOW[6]="-150.571929516076"/4
#> ESO_LOW[7]="-150.571913642514"/4
#> ESO_LOW[8]="-150.521078846785"/4
#> TMS(SO,LEN)="0.000285979685"/6
#> TMS(SO,LEN)="0.000000013746"/6
#> TMS(SO,LEN)="0.000000000065"/6
#> TMS(SO,LEN)="0.000000938827"/6
#> TMS(SO,LEN)="0.000000004489"/6
#> TMS(SO,LEN)="0.000000028816"/6
#> TMS(SO,LEN)="0.001558892679"/6
#> TMS(SO,LEN)="0.000005655607"/6
#> TMS(SO,LEN)="0.000000000028"/6
#> TMS(SO,LEN)="0.001564504365"/6
#> TMS(SO,LEN)="0.000000029126"/6
#> TMS(SO,LEN)="0.000000000050"/6
#> TMS(SO,LEN)="0.000003931939"/6
#> TMS(SO,LEN)="0.000000000300"/6
#> TMS(SO,LEN)="0.000005654677"/6
#> TMS(SO,LEN)="0.001554859624"/6
#> TMS(SO,VEL)="0.009281703861"/6
#> TMS(SO,VEL)="0.000000372040"/6
#> TMS(SO,VEL)="0.000000002284"/6
#> TMS(SO,VEL)="0.000028979064"/6
#> TMS(SO,VEL)="0.000000860643"/6
#> TMS(SO,VEL)="0.0"/6
#> TMS(SO,VEL)="0.028660727633"/6
#> TMS(SO,VEL)="0.000103311068"/6
#> TMS(SO,VEL)="0.000000040220"/6
#> TMS(SO,VEL)="0.028765406463"/6
#> TMS(SO,VEL)="0.000000000000"/6
#> TMS(SO,VEL)="0.000000000111"/6
#> TMS(SO,VEL)="0.000110600999"/6
#> TMS(SO,VEL)="0.0"/6
#> TMS(SO,VEL)="0.000103974024"/6
#> TMS(SO,VEL)="0.028561991068"/6
#> ITMS(SO)="0.009282304800"/6
#> ROTS(SO)="-17.127983864920"/4
#> ITMS(SO)="0.000000371412"/6
#> ROTS(SO)="0.000620164389"/4
#> ITMS(SO)="0.000000002398"/6
#> ROTS(SO)="0.000032661998"/4
#> ITMS(SO)="0.000028969712"/6
#> ROTS(SO)="-0.050136946794"/4
#> ITMS(SO)="0.000000860666"/6
#> ROTS(SO)="-0.003372690556"/4
#> ITMS(SO)="0.000000000001"/6
#> ROTS(SO)="-0.000000032942"/4
#> ITMS(SO)="0.028661096662"/6
#> ROTS(SO)="-118.482048680949"/4
#> ITMS(SO)="0.000103313564"/6
#> ROTS(SO)="-0.534762723673"/4
#> ITMS(SO)="0.000000040220"/6
#> ROTS(SO)="0.000191926032"/4
#> ITMS(SO)="0.028765778061"/6
#> ROTS(SO)="-119.028040227275"/4
#> ITMS(SO)="0.000000000000"/6
#> ROTS(SO)="-0.000000104655"/4
#> ITMS(SO)="0.000000000195"/6
#> ROTS(SO)="-0.000231371005"/4
#> ITMS(SO)="0.000110602098"/6
#> ROTS(SO)="-0.448786452682"/4
#> ITMS(SO)="0.000000000082"/6
#> ROTS(SO)="-0.000000379196"/4
#> ITMS(SO)="0.000103976538"/6
#> ROTS(SO)="-0.537929396807"/4
#> ITMS(SO)="0.028562359029"/6
#> ROTS(SO)="-118.078871398368"/4
#>>   8
#> E_RASSI[0]="-150.812030120753"/4
#> E_RASSI[1]="-150.577596844735"/4
#> E_RASSI[2]="-150.521079800533"/4
#> E_RASSI[3]="-150.615385809074"/4
#> E_RASSI[4]="-150.571931906256"/4
#> TMS(SF,LEN)="0.0"/6
#> TMS(SF,LEN)="0.000286920333"/6
#> TMS(SF,LEN)="0.0"/6
#> TMS(SF,LEN)="0.004859760254"/6
#> TMS(SF,VEL)="0.0"/6
#> TMS(SF,VEL)="0.009310691231"/6
#> TMS(SF,VEL)="0.0"/6
#> TMS(SF,VEL)="0.037034718911"/6
#> ITMS(SF)="0.0"/6
#> ROTS(SF)="0.0"/4
#> ITMS(SF)="0.009311283013"/6
#> ROTS(SF)="-17.178018112273"/4
#> ITMS(SF)="0.0"/6
#> ROTS(SF)="0.0"/4
#> ITMS(SF)="0.037035763027"/6
#> ROTS(SF)="24.048035356710"/4
#> ESO_LOW[0]="-150.812030397741"/4
#> ESO_LOW[1]="-150.615388311667"/4
#> ESO_LOW[2]="-150.615388009761"/4
#> ESO_LOW[3]="-150.615386117758"/4
#> ESO_LOW[4]="-150.577615020983"/4
#> ESO_LOW[5]="-150.571930048727"/4
#> ESO_LOW[6]="-150.571929516076"/4
#> ESO_LOW[7]="-150.571913642514"/4
#> ESO_LOW[8]="-150.521078846785"/4
#> TMS(SO,LEN)="0.000000001937"/6
#> TMS(SO,LEN)="0.000000001990"/6
#> TMS(SO,LEN)="0.000000023062"/6
#> TMS(SO,LEN)="0.000285979685"/6
#> TMS(SO,LEN)="0.000000013746"/6
#> TMS(SO,LEN)="0.000000000065"/6
#> TMS(SO,LEN)="0.000000938827"/6
#> TMS(SO,LEN)="0.004859717818"/6
#> TMS(SO,VEL)="0.000000127815"/6
#> TMS(SO,VEL)="0.000000000196"/6
#> TMS(SO,VEL)="0.000000139743"/6
#> TMS(SO,VEL)="0.009281703861"/6
#> TMS(SO,VEL)="0.000000372040"/6
#> TMS(SO,VEL)="0.000000002284"/6
#> TMS(SO,VEL)="0.000028979064"/6
#> TMS(SO,VEL)="0.037034023965"/6
#> ITMS(SO)="0.000000127849"/6
#> ROTS(SO)="-0.000285989310"/4
#> ITMS(SO)="0.000000000196"/6
#> ROTS(SO)="-0.000000445184"/4
#> ITMS(SO)="0.000000139731"/6
#> ROTS(SO)="0.000216513751"/4
#> ITMS(SO)="0.009282304800"/6
#> ROTS(SO)="-17.127983864920"/4
#> ITMS(SO)="0.000000371412"/6
#> ROTS(SO)="0.000620164389"/4
#> ITMS(SO)="0.000000002398"/6
#> ROTS(SO)="0.000032661998"/4
#> ITMS(SO)="0.000028969712"/6
#> ROTS(SO)="-0.050136946794"/4
#> ITMS(SO)="0.037035068678"/6
#> ROTS(SO)="24.047337465108"/4
>>EOF
