*-------------------------------------------------------------------------------
* Molecule: H2O2
* Basis: ANO-RCC-MB
* Symmetry: No symmetry
* Keywords tested:
* Responsible person: Roland Lindh (180210)
* Comments:
*-------------------------------------------------------------------------------

> COPY H2O2.InpOrb .

> EXPORT MOLCAS_FORCE_NON_AO_TDM=ON

&GATEWAY
  Coord = 4

    O     0.72874234    -0.02557354     0.00000000
    O    -0.72874234     0.02557354     0.00000000
    H     0.92780942     0.80010690     0.46407928
    H    -0.92780942    -0.80010690     0.46407928
  Basis = ANO-RCC-MB
  Group = NoSym
  RICD

&SEWARD

&RASSCF
  File   = H2O2.InpOrb
  Spin   = 1
  CIRoot = 1 1 1
  Thrs   = 1.0e-10 1.0e-06 1.0e-06

> COPY $Project.JobIph JOB001

&RASSCF
  File   = H2O2.InpOrb
  Spin   = 1
  CIRoot = 3 3 ; 1 2 3 ; 0 1 1
  Thrs   = 1.0e-10 1.0e-06 1.0e-06

> COPY $Project.JobIph JOB002

&RASSCF
  File   = H2O2.InpOrb
  Spin   = 3
  CIRoot = 2 2 1
  Thrs   = 1.0e-10 1.0e-06 1.0e-06

> COPY $Project.JobIph JOB003

&RASSI
  NrOfJobIph
    3   1 2 2
    1
    2 3
    1 2
  TInt
  Subset = 1
  SpinOrbit

> FILE H2O2.InpOrb
#INPORB 2.2
#INFO
* File generated by Pegamoid from /home/ignacio/Programs/OpenMolcas/build/test/tmp/additional__419/additional__419.rasscf.h5
       0       1       0
      12
      12
*BC:HOST serrano PID 454 DATE Thu Nov 14 11:16:44 2019
#ORB
* ORBITAL    1    1
 -7.07186648692921E-01 -1.26896198691555E-03 -2.69073404010910E-04 -3.72818793445094E-04 -4.80005817507861E-04
  7.07186892148442E-01  1.26896150123756E-03 -2.69072250532034E-04 -3.72819935748506E-04  4.80006832324964E-04
  9.12763627248199E-04 -9.12763653192124E-04
* ORBITAL    1    2
  7.07146064911725E-01  1.56915955411586E-03 -1.30515470232039E-03 -6.86812187740543E-05 -2.38612177168155E-04
  7.07145821390765E-01  1.56915913637956E-03  1.30515478935213E-03  6.86813720198536E-05 -2.38612347020176E-04
 -1.85571436892243E-03 -1.85571406358585E-03
* ORBITAL    1    3
 -1.61354902771754E-02  5.45103916452687E-01  3.78749011313938E-02  1.33711107738840E-01  7.68032238835118E-02
 -1.61354902729756E-02  5.45103916444461E-01 -3.78749011225065E-02 -1.33711107860517E-01  7.68032239187522E-02
  1.36542339435414E-01  1.36542339488182E-01
* ORBITAL    1    4
 -6.59265767302445E-03  5.51517658147401E-01  9.60434906613472E-02  1.97821081368273E-01  8.75106896389160E-02
  6.59265766078638E-03 -5.51517658287310E-01  9.60434907058871E-02  1.97821081067859E-01 -8.75106894849024E-02
  2.01400028096673E-01 -2.01400027930621E-01
* ORBITAL    1    5
 -1.32276391865618E-02 -4.49067515712787E-01 -5.21164294879741E-02  4.72791835312558E-01  9.06097701252629E-02
  1.32276391311700E-02  4.49067515192111E-01 -5.21164298081330E-02  4.72791834660572E-01 -9.06097693274825E-02
  1.97103842403287E-01 -1.97103841836830E-01
* ORBITAL    1    6
 -6.57946391102280E-03 -2.87743579953277E-01  1.82527939256301E-01  2.45407776196613E-01  4.37476779929813E-01
 -6.57946555666385E-03 -2.87743580595582E-01 -1.82527939201485E-01 -2.45407777219588E-01  4.37476780158768E-01
  2.51304202746442E-01  2.51304203238846E-01
* ORBITAL    1    7
 -8.13082526427377E-03 -1.22138786618289E-02 -4.91689279821160E-01 -1.99894886136867E-01  3.91036596613324E-01
 -8.13082605641316E-03 -1.22138785975725E-02  4.91689279838987E-01  1.99894886164321E-01  3.91036596601304E-01
 -1.21293106092739E-01 -1.21293106102909E-01
* ORBITAL    1    8
  1.81353206545183E-02  2.27811393474264E-01  3.70304841327420E-01 -5.41023061983177E-01  2.22034017441944E-01
  1.81353217446491E-02  2.27811393387739E-01 -3.70304841308929E-01  5.41023062184067E-01  2.22034017468736E-01
 -1.14895995109716E-01 -1.14895995204864E-01
* ORBITAL    1    9
  1.99360509483596E-03  4.87454066337276E-02  1.31263435763543E-01  2.03367424928122E-01 -7.12972984409230E-01
 -1.99360509769197E-03 -4.87454066654248E-02  1.31263435811773E-01  2.03367424884165E-01  7.12972984377175E-01
 -1.02884305233846E-01  1.02884305254084E-01
* ORBITAL    1   10
 -3.60298773539796E-02 -4.47976936251591E-01  8.33346927514216E-01 -1.02176529940387E-01  5.88234369360473E-02
  3.60298773541035E-02  4.47976936213735E-01  8.33346927500597E-01 -1.02176529904102E-01 -5.88234369580446E-02
  6.02902647095067E-02 -6.02902646549375E-02
* ORBITAL    1   11
 -5.73370339158097E-02 -5.13932303606450E-01 -1.46536696592206E-01 -5.24950086427522E-01 -2.71370404720293E-01
 -5.73370339131837E-02 -5.13932303594764E-01  1.46536696514282E-01  5.24950086373936E-01 -2.71370404694308E-01
  8.52369297101843E-01  8.52369297005351E-01
* ORBITAL    1   12
  4.60744954159518E-02  4.05219232848715E-01  2.36179043047763E-01  5.19111729084457E-01  3.16266957565953E-01
 -4.60744954228585E-02 -4.05219232896856E-01  2.36179043065102E-01  5.19111729135569E-01 -3.16266957596723E-01
 -9.52681640294154E-01  9.52681640384401E-01
#OCC
* OCCUPATION NUMBERS
  2.00000000000000E+00  2.00000000000000E+00  2.00000000000000E+00  2.00000000000000E+00  1.99001563306904E+00
  1.98773751581927E+00  1.96247790841714E+00  1.49527313919708E+00  1.52150376485422E+00  1.04299203864325E+00
  0.00000000000000E+00  0.00000000000000E+00
#ONE
* ONE ELECTRON ENERGIES
 -2.0567E+01 -2.0567E+01 -1.4041E+00 -1.1811E+00  0.0000E+00  0.0000E+00  0.0000E+00  0.0000E+00  0.0000E+00  0.0000E+00
  4.6764E-01  5.3100E-01
#INDEX
* 1234567890
0 iiii222222
1 ss
> EOF

>>FILE checkfile
* This file is autogenerated:
* Molcas version 19.11-4-gff72e42d
* Linux serrano 3.13.0-162-generic #212-Ubuntu SMP Mon Oct 29 12:08:50 UTC 2018 x86_64 x86_64 x86_64 GNU/Linux
* Thu Nov 14 11:31:18 2019
*
#>>   1
#> POTNUC="36.674311735665"/12
#>>   2
#> SEWARD_MLTPL1X="1.377123438019"/5
#> SEWARD_KINETIC="158062.425000000076"/5
#> SEWARD_ATTRACT="-4147.815821324734"/5
#> POTNUC="36.674311735665"/12
#> SEWARD_MLTPL1X="1.377123438019"/5
#> SEWARD_KINETIC="29.404288386289"/5
#> SEWARD_ATTRACT="-65.060050878154"/5
#>>   3
#> RASSCF_ITER="23"/8
#> E_RASSCF="-150.812029412882"/4
#> MLTPL__0="-0.000000000000"/2
#> MLTPL__1[0]="-0.000000001767"/2
#> MLTPL__1[1]="-0.000000000096"/2
#> MLTPL__1[2]="0.750850578641"/2
#> MLTPL__2[0]="-0.498570699314"/2
#> MLTPL__2[1]="3.413413233078"/2
#> MLTPL__2[2]="0.000000002413"/2
#> MLTPL__2[3]="1.425660491421"/2
#> MLTPL__2[4]="0.000000000063"/2
#> MLTPL__2[5]="-0.927089792108"/2
#>>   4
#> RASSCF_ITER="9"/8
#> E_RASSCF[0]="-150.808200664158"/4
#> E_RASSCF[1]="-150.577596844865"/4
#> E_RASSCF[2]="-150.521079799863"/4
#> MLTPL__0="-0.000000000000"/2
#> MLTPL__1[0]="-0.000000000045"/2
#> MLTPL__1[1]="0.000000000018"/2
#> MLTPL__1[2]="0.678461876591"/2
#> MLTPL__2[0]="-0.512591362976"/2
#> MLTPL__2[1]="3.074736280019"/2
#> MLTPL__2[2]="0.000000000004"/2
#> MLTPL__2[3]="1.340607119469"/2
#> MLTPL__2[4]="0.000000000021"/2
#> MLTPL__2[5]="-0.828015756492"/2
#> MLTPL__0="-0.000000000000"/2
#> MLTPL__1[0]="0.000000000009"/2
#> MLTPL__1[1]="0.000000000034"/2
#> MLTPL__1[2]="0.603368032755"/2
#> MLTPL__2[0]="-1.285441189080"/2
#> MLTPL__2[1]="3.185476934629"/2
#> MLTPL__2[2]="-0.000000000026"/2
#> MLTPL__2[3]="1.265371524740"/2
#> MLTPL__2[4]="0.000000000028"/2
#> MLTPL__2[5]="0.020069664339"/2
#> MLTPL__0="-0.000000000000"/2
#> MLTPL__1[0]="0.000000000040"/2
#> MLTPL__1[1]="0.000000000012"/2
#> MLTPL__1[2]="0.766709519569"/2
#> MLTPL__2[0]="-1.384173912316"/2
#> MLTPL__2[1]="3.065469993757"/2
#> MLTPL__2[2]="0.000000000078"/2
#> MLTPL__2[3]="2.024844121664"/2
#> MLTPL__2[4]="0.000000000020"/2
#> MLTPL__2[5]="-0.640670209349"/2
#>>   5
#> RASSCF_ITER="4"/8
#> E_RASSCF[0]="-150.615385803185"/4
#> E_RASSCF[1]="-150.571931899403"/4
#> MLTPL__0="-0.000000000000"/2
#> MLTPL__1[0]="-0.000000000008"/2
#> MLTPL__1[1]="-0.000000000005"/2
#> MLTPL__1[2]="0.609762439155"/2
#> MLTPL__2[0]="-1.406813304464"/2
#> MLTPL__2[1]="3.288290149084"/2
#> MLTPL__2[2]="-0.000000000023"/2
#> MLTPL__2[3]="1.339250229159"/2
#> MLTPL__2[4]="-0.000000000014"/2
#> MLTPL__2[5]="0.067563075305"/2
#> MLTPL__0="-0.000000000000"/2
#> MLTPL__1[0]="-0.000000000005"/2
#> MLTPL__1[1]="-0.000000000039"/2
#> MLTPL__1[2]="0.746627442246"/2
#> MLTPL__2[0]="-0.872314258429"/2
#> MLTPL__2[1]="2.459206338139"/2
#> MLTPL__2[2]="0.000000000008"/2
#> MLTPL__2[3]="1.874931994950"/2
#> MLTPL__2[4]="-0.000000000019"/2
#> MLTPL__2[5]="-1.002617736522"/2
#>>   6
#> E_RASSI[0]="-150.812030120377"/4
#> E_RASSI[1]="-150.577596843689"/4
#> E_RASSI[2]="-150.521079799376"/4
#> E_RASSI[3]="-150.615385808105"/4
#> E_RASSI[4]="-150.571931905198"/4
#> TMS(SF,LEN)="0.0"/6
#> TMS(SF,LEN)="0.000286920291"/6
#> TMS(SF,LEN)="0.0"/6
#> TMS(SF,LEN)="0.004859758185"/6
#> TMS(SF,VEL)="0.0"/6
#> TMS(SF,VEL)="0.009310693353"/6
#> TMS(SF,VEL)="0.0"/6
#> TMS(SF,VEL)="0.037034727459"/6
#> ITMS(SF)="0.0"/6
#> ROTS(SF)="0.0"/4
#> ITMS(SF)="0.009311016279"/6
#> ROTS(SF)="-25.432106331159"/4
#> ITMS(SF)="0.0"/6
#> ROTS(SF)="0.0"/4
#> ITMS(SF)="0.037036259430"/6
#> ROTS(SF)="33.177233050074"/4
#> ESO_LOW[0]="-150.812030397364"/4
#> ESO_LOW[1]="-150.615388310699"/4
#> ESO_LOW[2]="-150.615388008792"/4
#> ESO_LOW[3]="-150.615386116789"/4
#> ESO_LOW[4]="-150.577615019941"/4
#> ESO_LOW[5]="-150.571930047668"/4
#> ESO_LOW[6]="-150.571929515017"/4
#> ESO_LOW[7]="-150.571913641450"/4
#> ESO_LOW[8]="-150.521078845627"/4
#> TMS(SO,LEN)="0.000000001937"/6
#> TMS(SO,LEN)="0.000000001990"/6
#> TMS(SO,LEN)="0.000000023062"/6
#> TMS(SO,LEN)="0.000285979643"/6
#> TMS(SO,LEN)="0.000000013746"/6
#> TMS(SO,LEN)="0.000000000065"/6
#> TMS(SO,LEN)="0.000000938827"/6
#> TMS(SO,LEN)="0.004859715749"/6
#> TMS(SO,VEL)="0.000000127816"/6
#> TMS(SO,VEL)="0.000000000196"/6
#> TMS(SO,VEL)="0.000000139744"/6
#> TMS(SO,VEL)="0.009281705968"/6
#> TMS(SO,VEL)="0.000000372040"/6
#> TMS(SO,VEL)="0.000000002284"/6
#> TMS(SO,VEL)="0.000028979079"/6
#> TMS(SO,VEL)="0.037034032512"/6
#> ITMS(SO)="0.000000127859"/6
#> ROTS(SO)="-0.000249245870"/4
#> ITMS(SO)="0.000000000196"/6
#> ROTS(SO)="-0.000000619336"/4
#> ITMS(SO)="0.000000139724"/6
#> ROTS(SO)="0.000244829167"/4
#> ITMS(SO)="0.009282028930"/6
#> ROTS(SO)="-25.356363642869"/4
#> ITMS(SO)="0.000000371959"/6
#> ROTS(SO)="0.000701227374"/4
#> ITMS(SO)="0.000000002288"/6
#> ROTS(SO)="0.000029862053"/4
#> ITMS(SO)="0.000028979007"/6
#> ROTS(SO)="-0.075837559173"/4
#> ITMS(SO)="0.037035564563"/6
#> ROTS(SO)="33.176374107152"/4
>>EOF
