************************************************************************
*   This test verifies the functionality of the POLY_ANISO code when   *
*   one "aniso" input file is given, i.e. when one center is computed  *
*   ab initio. Computation of all magnetic properties is verified.     *
*   g tensor, XT, M, zJ                                                *
*                                                                      *
*   This test is a clone of the test/additional/452.input with the     *
*   only difference that the aniso_1.input input datafile is in the    *
*   NEW format. The test 452 uses aniso_1.input input datafile in old  *
*   format.                                                            *
************************************************************************

>>COPY AnisoFile aniso_1.input

&POLY_ANISO &END
NNEQ
1  T  F
1
2
End of input

&POLY_ANISO &END
MLTP
1
2
NNEQ
1  T  F
1
2
End of input

&POLY_ANISO &END
NNEQ
1  T  F
1
2
COORD
0.0 0.0 1.0
End of input

&POLY_ANISO &END
NNEQ
1  T  F
1
2
COORD
0.0 0.0 1.0
ZJPR
-0.001
End of input

&POLY_ANISO &END
TMAG
3  2.25  3.54  102.0
NNEQ
1  T  F
1
2
COORD
0.0 0.0 1.0
End of input

&POLY_ANISO &END
TMAG
3  2.25  3.54  102.0
MAVE
1 4
NNEQ
1  T  F
1
2
End of input

&POLY_ANISO &END
TMAG
3  2.25  3.54  102.0
MAVE
 1 6
NNEQ
1  T  F
1
2
ZEEM
3
0.0 0.0 1.0
0.0 1.0 0.0
1.0 0.0 0.0
End of input

&POLY_ANISO &END
MVEC
3
0.0 0.0 1.0
0.0 1.0 0.0
1.0 0.0 0.0
MAVE
1 6
NNEQ
1  T  F
1
2
TMAG
3  2.25  3.54  102.0
End of input

&POLY_ANISO &END
MVEC
3
0.0 0.0 -1.0
0.0 -1.0 0.0
-1.0 0.0 0.0
MAVE
1 8
NNEQ
1  T  F
1
2
TMAG
4  2.25  3.54 1.0  102.0
End of input

&POLY_ANISO &END
MVEC
3
0.0 0.0 -1.0
0.0 -1.0 0.0
-1.0 0.0 0.0
ZEEM
3
1.0 0.0 0.0
0.0 0.0 -1.0
0.0 -1.0 0.0
MAVE
1 5
NNEQ
1  T  F
1
2
TMAG
4  2.25  3.54 1.0  102.0
ZJPR
-0.001
End of input

&POLY_ANISO &END
MVEC
3
 0.0  0.0 -1.0
 0.0 -1.0  0.0
-1.0  0.0  0.0
NNEQ
1  T  F
1
2
ZEEM
3
 1.0  0.0  0.0
 0.0  0.0 -1.0
 0.0 -1.0  0.0
MAVE
1 5
TMAG
4  2.25  3.54 1.0  102.0
ZJPR
-0.002
End of input

&POLY_ANISO &END
MVEC
3
 0.0  0.0 -1.0
 0.0 -1.0  0.0
-1.0  0.0  0.0
NNEQ
1  T  F
1
2
ZEEM
3
 1.0  0.0  0.0
 0.0  0.0 -1.0
 0.0 -1.0  0.0
MAVE
1 5
TINT
0.0 32.0  31
ZJPR
-0.002
End of input






>> FILE AnisoFile
# OPENMOLCAS interface to ANISO
$source
MOLCAS  /Users/liviuungur/Programs/molcas_dev/OpenMolcas_LU.git/build_gcc
VERSION v20.10-968-g868a9b54a-dirty

$format
2021

$nss
2

$nstate
1

$nmult
1

$imult
1
2

$nroot
1
1

$szproj
2
-1 1

$multiplicity
1
2

$eso
2
  0.00000000000000E+00  0.00000000000000E+00

$esfs
1
  0.00000000000000E+00

$angmom_x
1 1
  0.00000000000000E+00

$angmom_y
1 1
  0.00000000000000E+00

$angmom_z
1 1
  0.00000000000000E+00

$amfi_x
1 1
  0.00000000000000E+00

$amfi_y
1 1
  0.00000000000000E+00

$amfi_z
1 1
  0.00000000000000E+00

$edmom_x
1 1
  0.00000000000000E+00

$edmom_y
1 1
  0.00000000000000E+00

$edmom_z
1 1
  0.00000000000000E+00

$magn_xr
2 2
  0.00000000000000E+00 -1.00115965218590E+00
 -1.00115965218590E+00  0.00000000000000E+00

$magn_xi
2 2
  0.00000000000000E+00  0.00000000000000E+00
  0.00000000000000E+00  0.00000000000000E+00

$magn_yr
2 2
  0.00000000000000E+00  0.00000000000000E+00
  0.00000000000000E+00  0.00000000000000E+00

$magn_yi
2 2
  0.00000000000000E+00  1.00115965218590E+00
 -1.00115965218590E+00  0.00000000000000E+00

$magn_zr
2 2
 -1.00115965218590E+00  0.00000000000000E+00
  0.00000000000000E+00  1.00115965218590E+00

$magn_zi
2 2
  0.00000000000000E+00  0.00000000000000E+00
  0.00000000000000E+00  0.00000000000000E+00

$spin_xr
2 2
  0.00000000000000E+00  0.50000000000000E+00
  0.50000000000000E+00  0.00000000000000E+00

$spin_xi
2 2
  0.00000000000000E+00  0.00000000000000E+00
  0.00000000000000E+00  0.00000000000000E+00

$spin_yr
2 2
  0.00000000000000E+00  0.00000000000000E+00
  0.00000000000000E+00  0.00000000000000E+00

$spin_yi
2 2
  0.00000000000000E+00 -0.50000000000000E+00
  0.50000000000000E+00  0.00000000000000E+00

$spin_zr
2 2
  0.50000000000000E+00  0.00000000000000E+00
  0.00000000000000E+00 -0.50000000000000E+00

$spin_zi
2 2
  0.00000000000000E+00  0.00000000000000E+00
  0.00000000000000E+00  0.00000000000000E+00

$edipm_xr
2 2
  0.00000000000000E+00  0.00000000000000E+00
  0.00000000000000E+00  0.00000000000000E+00

$edipm_xi
2 2
  0.00000000000000E+00  0.00000000000000E+00
  0.00000000000000E+00  0.00000000000000E+00

$edipm_yr
2 2
  0.00000000000000E+00  0.00000000000000E+00
  0.00000000000000E+00  0.00000000000000E+00

$edipm_yi
2 2
  0.00000000000000E+00  0.00000000000000E+00
  0.00000000000000E+00  0.00000000000000E+00

$edipm_zr
2 2
  0.00000000000000E+00  0.00000000000000E+00
  0.00000000000000E+00  0.00000000000000E+00

$edipm_zi
2 2
  0.00000000000000E+00  0.00000000000000E+00
  0.00000000000000E+00  0.00000000000000E+00

$eigenr
2 2
  0.00000000000000E+00  0.00000000000000E+00
  0.00000000000000E+00  0.00000000000000E+00

$eigeni
2 2
  0.00000000000000E+00  0.00000000000000E+00
  0.00000000000000E+00  0.00000000000000E+00

$hsor
2 2
  0.00000000000000E+00  0.00000000000000E+00
  0.00000000000000E+00  0.00000000000000E+00

$hsoi
2 2
  0.00000000000000E+00  0.00000000000000E+00
  0.00000000000000E+00  0.00000000000000E+00
>> EOF

>>FILE checkfile
* This file is autogenerated:
* Molcas version 24.06-61-gddb5d5d90
* Linux otis 5.15.0-119-generic #129-Ubuntu SMP Fri Aug 2 19:25:20 UTC 2024 x86_64 x86_64 x86_64 GNU/Linux
* Wed Aug 21 12:05:28 2024
*
#>>   1
#> XT:__CHIT_TENS_L="1.736070289829"/6
#> XT:__CHIT_TENS_LR="1.736070289829"/6
#> XT:__CHIT_TENS_EXCH="1.736070289829"/6
#> XT:__ZSTAT_EXCH="2"/6
#> XT:__ZSTAT_L="2"/6
#> XT:__ZSTAT_LR="2"/6
#> XT:__XL="1.736070289829"/6
#> XT:__XR="1.736070289829"/6
#> XT:__ZL="2"/6
#> XT:__ZR="2"/6
#> XT:_ZEX="2"/6
#> XT:_CHIT_THETA_TENS="0.0"/6
#> XT:__CHIT_TENS_L="1.736070289829"/6
#> XT:__CHIT_TENS_LR="1.736070289829"/6
#> XT:__CHIT_TENS_EXCH="1.736070289829"/6
#> XT:__ZSTAT_EXCH="2"/6
#> XT:__ZSTAT_L="2"/6
#> XT:__ZSTAT_LR="2"/6
#> XT:__XL="1.736070289829"/6
#> XT:__XR="1.736070289829"/6
#> XT:__ZL="2"/6
#> XT:__ZR="2"/6
#> XT:_ZEX="2"/6
#> XT:_CHIT_THETA_TENS="0.0"/6
#> XT:__CHIT_TENS_L="1.736070289829"/6
#> XT:__CHIT_TENS_LR="1.736070289829"/6
#> XT:__CHIT_TENS_EXCH="1.736070289829"/6
#> XT:__ZSTAT_EXCH="2"/6
#> XT:__ZSTAT_L="2"/6
#> XT:__ZSTAT_LR="2"/6
#> XT:__XL="1.736070289829"/6
#> XT:__XR="1.736070289829"/6
#> XT:__ZL="2"/6
#> XT:__ZR="2"/6
#> XT:_ZEX="2"/6
#> XT:_CHIT_THETA_TENS="0.0"/6
#> XT:__CHIT_TENS_L="1.736070289829"/6
#> XT:__CHIT_TENS_LR="1.736070289829"/6
#> XT:__CHIT_TENS_EXCH="1.736070289829"/6
#> XT:__ZSTAT_EXCH="2"/6
#> XT:__ZSTAT_L="2"/6
#> XT:__ZSTAT_LR="2"/6
#> XT:__XL="1.736070289829"/6
#> XT:__XR="1.736070289829"/6
#> XT:__ZL="2"/6
#> XT:__ZR="2"/6
#> XT:_ZEX="2"/6
#> XT:_CHIT_THETA_TENS="0.0"/6
#> XT:__CHIT_TENS_L="1.736070289829"/6
#> XT:__CHIT_TENS_LR="1.736070289829"/6
#> XT:__CHIT_TENS_EXCH="1.736070289829"/6
#> XT:__ZSTAT_EXCH="2"/6
#> XT:__ZSTAT_L="2"/6
#> XT:__ZSTAT_LR="2"/6
#> XT:__XL="1.736070289829"/6
#> XT:__XR="1.736070289829"/6
#> XT:__ZL="2"/6
#> XT:__ZR="2"/6
#> XT:_ZEX="2"/6
#> XT:_CHIT_THETA_TENS="0.0"/6
#> XT:__CHIT_TENS_L="1.736070289829"/6
#> XT:__CHIT_TENS_LR="1.736070289829"/6
#> XT:__CHIT_TENS_EXCH="1.736070289829"/6
#> XT:__ZSTAT_EXCH="2"/6
#> XT:__ZSTAT_L="2"/6
#> XT:__ZSTAT_LR="2"/6
#> XT:__XL="1.736070289829"/6
#> XT:__XR="1.736070289829"/6
#> XT:__ZL="2"/6
#> XT:__ZR="2"/6
#> XT:_ZEX="2"/6
#> XT:_CHIT_THETA_TENS="0.0"/6
#> XT:__CHIT_TENS_L="1.736070289829"/6
#> XT:__CHIT_TENS_LR="1.736070289829"/6
#> XT:__CHIT_TENS_EXCH="1.736070289829"/6
#> XT:__ZSTAT_EXCH="2"/6
#> XT:__ZSTAT_L="2"/6
#> XT:__ZSTAT_LR="2"/6
#> XT:__XL="1.736070289829"/6
#> XT:__XR="1.736070289829"/6
#> XT:__ZL="2"/6
#> XT:__ZR="2"/6
#> XT:_ZEX="2"/6
#> XT:_CHIT_THETA_TENS="0.0"/6
#> XT:__CHIT_TENS_L="1.736070289829"/6
#> XT:__CHIT_TENS_LR="1.736070289829"/6
#> XT:__CHIT_TENS_EXCH="1.736070289829"/6
#> XT:__ZSTAT_EXCH="2"/6
#> XT:__ZSTAT_L="2"/6
#> XT:__ZSTAT_LR="2"/6
#> XT:__XL="1.736070289829"/6
#> XT:__XR="1.736070289829"/6
#> XT:__ZL="2"/6
#> XT:__ZR="2"/6
#> XT:_ZEX="2"/6
#> XT:_CHIT_THETA_TENS="0.0"/6
#> XT:__CHIT_TENS_L="1.736070289829"/6
#> XT:__CHIT_TENS_LR="1.736070289829"/6
#> XT:__CHIT_TENS_EXCH="1.736070289829"/6
#> XT:__ZSTAT_EXCH="2"/6
#> XT:__ZSTAT_L="2"/6
#> XT:__ZSTAT_LR="2"/6
#> XT:__XL="1.736070289829"/6
#> XT:__XR="1.736070289829"/6
#> XT:__ZL="2"/6
#> XT:__ZR="2"/6
#> XT:_ZEX="2"/6
#> XT:_CHIT_THETA_TENS="0.0"/6
#> XT:__CHIT_TENS_L="1.736070289829"/6
#> XT:__CHIT_TENS_LR="1.736070289829"/6
#> XT:__CHIT_TENS_EXCH="1.736070289829"/6
#> XT:__ZSTAT_EXCH="2"/6
#> XT:__ZSTAT_L="2"/6
#> XT:__ZSTAT_LR="2"/6
#> XT:__XL="1.736070289829"/6
#> XT:__XR="1.736070289829"/6
#> XT:__ZL="2"/6
#> XT:__ZR="2"/6
#> XT:_ZEX="2"/6
#> XT:_CHIT_THETA_TENS="0.0"/6
#> XT:__CHIT_TENS_L="1.736070289829"/6
#> XT:__CHIT_TENS_LR="1.736070289829"/6
#> XT:__CHIT_TENS_EXCH="1.736070289829"/6
#> XT:__ZSTAT_EXCH="2"/6
#> XT:__ZSTAT_L="2"/6
#> XT:__ZSTAT_LR="2"/6
#> XT:__XL="1.736070289829"/6
#> XT:__XR="1.736070289829"/6
#> XT:__ZL="2"/6
#> XT:__ZR="2"/6
#> XT:_ZEX="2"/6
#> XT:_CHIT_THETA_TENS="0.0"/6
#> XT:__CHIT_TENS_L="1.736070289829"/6
#> XT:__CHIT_TENS_LR="1.736070289829"/6
#> XT:__CHIT_TENS_EXCH="1.736070289829"/6
#> XT:__ZSTAT_EXCH="2"/6
#> XT:__ZSTAT_L="2"/6
#> XT:__ZSTAT_LR="2"/6
#> XT:__XL="1.736070289829"/6
#> XT:__XR="1.736070289829"/6
#> XT:__ZL="2"/6
#> XT:__ZR="2"/6
#> XT:_ZEX="2"/6
#> XT:_CHIT_THETA_TENS="0.0"/6
#> XT:__CHIT_TENS_L="1.736070289829"/6
#> XT:__CHIT_TENS_LR="1.736070289829"/6
#> XT:__CHIT_TENS_EXCH="1.736070289829"/6
#> XT:__ZSTAT_EXCH="2"/6
#> XT:__ZSTAT_L="2"/6
#> XT:__ZSTAT_LR="2"/6
#> XT:__XL="1.736070289829"/6
#> XT:__XR="1.736070289829"/6
#> XT:__ZL="2"/6
#> XT:__ZR="2"/6
#> XT:_ZEX="2"/6
#> XT:_CHIT_THETA_TENS="0.0"/6
#> XT:__CHIT_TENS_L="1.736070289829"/6
#> XT:__CHIT_TENS_LR="1.736070289829"/6
#> XT:__CHIT_TENS_EXCH="1.736070289829"/6
#> XT:__ZSTAT_EXCH="2"/6
#> XT:__ZSTAT_L="2"/6
#> XT:__ZSTAT_LR="2"/6
#> XT:__XL="1.736070289829"/6
#> XT:__XR="1.736070289829"/6
#> XT:__ZL="2"/6
#> XT:__ZR="2"/6
#> XT:_ZEX="2"/6
#> XT:_CHIT_THETA_TENS="0.0"/6
#> XT:__CHIT_TENS_L="1.736070289829"/6
#> XT:__CHIT_TENS_LR="1.736070289829"/6
#> XT:__CHIT_TENS_EXCH="1.736070289829"/6
#> XT:__ZSTAT_EXCH="2"/6
#> XT:__ZSTAT_L="2"/6
#> XT:__ZSTAT_LR="2"/6
#> XT:__XL="1.736070289829"/6
#> XT:__XR="1.736070289829"/6
#> XT:__ZL="2"/6
#> XT:__ZR="2"/6
#> XT:_ZEX="2"/6
#> XT:_CHIT_THETA_TENS="0.0"/6
#> XT:__CHIT_TENS_L="1.736070289829"/6
#> XT:__CHIT_TENS_LR="1.736070289829"/6
#> XT:__CHIT_TENS_EXCH="1.736070289829"/6
#> XT:__ZSTAT_EXCH="2"/6
#> XT:__ZSTAT_L="2"/6
#> XT:__ZSTAT_LR="2"/6
#> XT:__XL="1.736070289829"/6
#> XT:__XR="1.736070289829"/6
#> XT:__ZL="2"/6
#> XT:__ZR="2"/6
#> XT:_ZEX="2"/6
#> XT:_CHIT_THETA_TENS="0.0"/6
#> XT:__CHIT_TENS_L="1.736070289829"/6
#> XT:__CHIT_TENS_LR="1.736070289829"/6
#> XT:__CHIT_TENS_EXCH="1.736070289829"/6
#> XT:__ZSTAT_EXCH="2"/6
#> XT:__ZSTAT_L="2"/6
#> XT:__ZSTAT_LR="2"/6
#> XT:__XL="1.736070289829"/6
#> XT:__XR="1.736070289829"/6
#> XT:__ZL="2"/6
#> XT:__ZR="2"/6
#> XT:_ZEX="2"/6
#> XT:_CHIT_THETA_TENS="0.0"/6
#> XT:__CHIT_TENS_L="1.736070289829"/6
#> XT:__CHIT_TENS_LR="1.736070289829"/6
#> XT:__CHIT_TENS_EXCH="1.736070289829"/6
#> XT:__ZSTAT_EXCH="2"/6
#> XT:__ZSTAT_L="2"/6
#> XT:__ZSTAT_LR="2"/6
#> XT:__XL="1.736070289829"/6
#> XT:__XR="1.736070289829"/6
#> XT:__ZL="2"/6
#> XT:__ZR="2"/6
#> XT:_ZEX="2"/6
#> XT:_CHIT_THETA_TENS="0.0"/6
#> XT:__CHIT_TENS_L="1.736070289829"/6
#> XT:__CHIT_TENS_LR="1.736070289829"/6
#> XT:__CHIT_TENS_EXCH="1.736070289829"/6
#> XT:__ZSTAT_EXCH="2"/6
#> XT:__ZSTAT_L="2"/6
#> XT:__ZSTAT_LR="2"/6
#> XT:__XL="1.736070289829"/6
#> XT:__XR="1.736070289829"/6
#> XT:__ZL="2"/6
#> XT:__ZR="2"/6
#> XT:_ZEX="2"/6
#> XT:_CHIT_THETA_TENS="0.0"/6
#> XT:__CHIT_TENS_L="1.736070289829"/6
#> XT:__CHIT_TENS_LR="1.736070289829"/6
#> XT:__CHIT_TENS_EXCH="1.736070289829"/6
#> XT:__ZSTAT_EXCH="2"/6
#> XT:__ZSTAT_L="2"/6
#> XT:__ZSTAT_LR="2"/6
#> XT:__XL="1.736070289829"/6
#> XT:__XR="1.736070289829"/6
#> XT:__ZL="2"/6
#> XT:__ZR="2"/6
#> XT:_ZEX="2"/6
#> XT:_CHIT_THETA_TENS="0.0"/6
#> XT:__CHIT_TENS_L="1.736070289829"/6
#> XT:__CHIT_TENS_LR="1.736070289829"/6
#> XT:__CHIT_TENS_EXCH="1.736070289829"/6
#> XT:__ZSTAT_EXCH="2"/6
#> XT:__ZSTAT_L="2"/6
#> XT:__ZSTAT_LR="2"/6
#> XT:__XL="1.736070289829"/6
#> XT:__XR="1.736070289829"/6
#> XT:__ZL="2"/6
#> XT:__ZR="2"/6
#> XT:_ZEX="2"/6
#> XT:_CHIT_THETA_TENS="0.0"/6
#> XT:__CHIT_TENS_L="1.736070289829"/6
#> XT:__CHIT_TENS_LR="1.736070289829"/6
#> XT:__CHIT_TENS_EXCH="1.736070289829"/6
#> XT:__ZSTAT_EXCH="2"/6
#> XT:__ZSTAT_L="2"/6
#> XT:__ZSTAT_LR="2"/6
#> XT:__XL="1.736070289829"/6
#> XT:__XR="1.736070289829"/6
#> XT:__ZL="2"/6
#> XT:__ZR="2"/6
#> XT:_ZEX="2"/6
#> XT:_CHIT_THETA_TENS="0.0"/6
#> XT:__CHIT_TENS_L="1.736070289829"/6
#> XT:__CHIT_TENS_LR="1.736070289829"/6
#> XT:__CHIT_TENS_EXCH="1.736070289829"/6
#> XT:__ZSTAT_EXCH="2"/6
#> XT:__ZSTAT_L="2"/6
#> XT:__ZSTAT_LR="2"/6
#> XT:__XL="1.736070289829"/6
#> XT:__XR="1.736070289829"/6
#> XT:__ZL="2"/6
#> XT:__ZR="2"/6
#> XT:_ZEX="2"/6
#> XT:_CHIT_THETA_TENS="0.0"/6
#> XT:__CHIT_TENS_L="1.736070289829"/6
#> XT:__CHIT_TENS_LR="1.736070289829"/6
#> XT:__CHIT_TENS_EXCH="1.736070289829"/6
#> XT:__ZSTAT_EXCH="2"/6
#> XT:__ZSTAT_L="2"/6
#> XT:__ZSTAT_LR="2"/6
#> XT:__XL="1.736070289829"/6
#> XT:__XR="1.736070289829"/6
#> XT:__ZL="2"/6
#> XT:__ZR="2"/6
#> XT:_ZEX="2"/6
#> XT:_CHIT_THETA_TENS="0.0"/6
#> XT:__CHIT_TENS_L="1.736070289829"/6
#> XT:__CHIT_TENS_LR="1.736070289829"/6
#> XT:__CHIT_TENS_EXCH="1.736070289829"/6
#> XT:__ZSTAT_EXCH="2"/6
#> XT:__ZSTAT_L="2"/6
#> XT:__ZSTAT_LR="2"/6
#> XT:__XL="1.736070289829"/6
#> XT:__XR="1.736070289829"/6
#> XT:__ZL="2"/6
#> XT:__ZR="2"/6
#> XT:_ZEX="2"/6
#> XT:_CHIT_THETA_TENS="0.0"/6
#> XT:__CHIT_TENS_L="1.736070289829"/6
#> XT:__CHIT_TENS_LR="1.736070289829"/6
#> XT:__CHIT_TENS_EXCH="1.736070289829"/6
#> XT:__ZSTAT_EXCH="2"/6
#> XT:__ZSTAT_L="2"/6
#> XT:__ZSTAT_LR="2"/6
#> XT:__XL="1.736070289829"/6
#> XT:__XR="1.736070289829"/6
#> XT:__ZL="2"/6
#> XT:__ZR="2"/6
#> XT:_ZEX="2"/6
#> XT:_CHIT_THETA_TENS="0.0"/6
#> XT:__CHIT_TENS_L="1.736070289829"/6
#> XT:__CHIT_TENS_LR="1.736070289829"/6
#> XT:__CHIT_TENS_EXCH="1.736070289829"/6
#> XT:__ZSTAT_EXCH="2"/6
#> XT:__ZSTAT_L="2"/6
#> XT:__ZSTAT_LR="2"/6
#> XT:__XL="1.736070289829"/6
#> XT:__XR="1.736070289829"/6
#> XT:__ZL="2"/6
#> XT:__ZR="2"/6
#> XT:_ZEX="2"/6
#> XT:_CHIT_THETA_TENS="0.0"/6
#> XT:__CHIT_TENS_L="1.736070289829"/6
#> XT:__CHIT_TENS_LR="1.736070289829"/6
#> XT:__CHIT_TENS_EXCH="1.736070289829"/6
#> XT:__ZSTAT_EXCH="2"/6
#> XT:__ZSTAT_L="2"/6
#> XT:__ZSTAT_LR="2"/6
#> XT:__XL="1.736070289829"/6
#> XT:__XR="1.736070289829"/6
#> XT:__ZL="2"/6
#> XT:__ZR="2"/6
#> XT:_ZEX="2"/6
#> XT:_CHIT_THETA_TENS="0.0"/6
#> XT:__CHIT_TENS_L="1.736070289829"/6
#> XT:__CHIT_TENS_LR="1.736070289829"/6
#> XT:__CHIT_TENS_EXCH="1.736070289829"/6
#> XT:__ZSTAT_EXCH="2"/6
#> XT:__ZSTAT_L="2"/6
#> XT:__ZSTAT_LR="2"/6
#> XT:__XL="1.736070289829"/6
#> XT:__XR="1.736070289829"/6
#> XT:__ZL="2"/6
#> XT:__ZR="2"/6
#> XT:_ZEX="2"/6
#> XT:_CHIT_THETA_TENS="0.0"/6
#> XT:__CHIT_TENS_L="1.736070289829"/6
#> XT:__CHIT_TENS_LR="1.736070289829"/6
#> XT:__CHIT_TENS_EXCH="1.736070289829"/6
#> XT:__ZSTAT_EXCH="2"/6
#> XT:__ZSTAT_L="2"/6
#> XT:__ZSTAT_LR="2"/6
#> XT:__XL="1.736070289829"/6
#> XT:__XR="1.736070289829"/6
#> XT:__ZL="2"/6
#> XT:__ZR="2"/6
#> XT:_ZEX="2"/6
#> XT:_CHIT_THETA_TENS="0.0"/6
#> XT:__CHIT_TENS_L="1.736070289829"/6
#> XT:__CHIT_TENS_LR="1.736070289829"/6
#> XT:__CHIT_TENS_EXCH="1.736070289829"/6
#> XT:__ZSTAT_EXCH="2"/6
#> XT:__ZSTAT_L="2"/6
#> XT:__ZSTAT_LR="2"/6
#> XT:__XL="1.736070289829"/6
#> XT:__XR="1.736070289829"/6
#> XT:__ZL="2"/6
#> XT:__ZR="2"/6
#> XT:_ZEX="2"/6
#> XT:_CHIT_THETA_TENS="0.0"/6
#> XT:__CHIT_TENS_L="1.736070289829"/6
#> XT:__CHIT_TENS_LR="1.736070289829"/6
#> XT:__CHIT_TENS_EXCH="1.736070289829"/6
#> XT:__ZSTAT_EXCH="2"/6
#> XT:__ZSTAT_L="2"/6
#> XT:__ZSTAT_LR="2"/6
#> XT:__XL="1.736070289829"/6
#> XT:__XR="1.736070289829"/6
#> XT:__ZL="2"/6
#> XT:__ZR="2"/6
#> XT:_ZEX="2"/6
#> XT:_CHIT_THETA_TENS="0.0"/6
#> XT:_T="972.370299834384"/6
#> XT:_T="2.127082886158"/6
#> XT:_CHIT_THETA="2.127082886158"/6
#> XT:_CHIT_THETA="11.313708498985"/6
#>>   2
#> XT:__CHIT_TENS_L="1.736070289829"/6
#> XT:__CHIT_TENS_LR="1.736070289829"/6
#> XT:__CHIT_TENS_EXCH="1.736070289829"/6
#> XT:__ZSTAT_EXCH="2"/6
#> XT:__ZSTAT_L="2"/6
#> XT:__ZSTAT_LR="2"/6
#> XT:__XL="1.736070289829"/6
#> XT:__XR="1.736070289829"/6
#> XT:__ZL="2"/6
#> XT:__ZR="2"/6
#> XT:_ZEX="2"/6
#> XT:_CHIT_THETA_TENS="0.0"/6
#> XT:__CHIT_TENS_L="1.736070289829"/6
#> XT:__CHIT_TENS_LR="1.736070289829"/6
#> XT:__CHIT_TENS_EXCH="1.736070289829"/6
#> XT:__ZSTAT_EXCH="2"/6
#> XT:__ZSTAT_L="2"/6
#> XT:__ZSTAT_LR="2"/6
#> XT:__XL="1.736070289829"/6
#> XT:__XR="1.736070289829"/6
#> XT:__ZL="2"/6
#> XT:__ZR="2"/6
#> XT:_ZEX="2"/6
#> XT:_CHIT_THETA_TENS="0.0"/6
#> XT:__CHIT_TENS_L="1.736070289829"/6
#> XT:__CHIT_TENS_LR="1.736070289829"/6
#> XT:__CHIT_TENS_EXCH="1.736070289829"/6
#> XT:__ZSTAT_EXCH="2"/6
#> XT:__ZSTAT_L="2"/6
#> XT:__ZSTAT_LR="2"/6
#> XT:__XL="1.736070289829"/6
#> XT:__XR="1.736070289829"/6
#> XT:__ZL="2"/6
#> XT:__ZR="2"/6
#> XT:_ZEX="2"/6
#> XT:_CHIT_THETA_TENS="0.0"/6
#> XT:__CHIT_TENS_L="1.736070289829"/6
#> XT:__CHIT_TENS_LR="1.736070289829"/6
#> XT:__CHIT_TENS_EXCH="1.736070289829"/6
#> XT:__ZSTAT_EXCH="2"/6
#> XT:__ZSTAT_L="2"/6
#> XT:__ZSTAT_LR="2"/6
#> XT:__XL="1.736070289829"/6
#> XT:__XR="1.736070289829"/6
#> XT:__ZL="2"/6
#> XT:__ZR="2"/6
#> XT:_ZEX="2"/6
#> XT:_CHIT_THETA_TENS="0.0"/6
#> XT:__CHIT_TENS_L="1.736070289829"/6
#> XT:__CHIT_TENS_LR="1.736070289829"/6
#> XT:__CHIT_TENS_EXCH="1.736070289829"/6
#> XT:__ZSTAT_EXCH="2"/6
#> XT:__ZSTAT_L="2"/6
#> XT:__ZSTAT_LR="2"/6
#> XT:__XL="1.736070289829"/6
#> XT:__XR="1.736070289829"/6
#> XT:__ZL="2"/6
#> XT:__ZR="2"/6
#> XT:_ZEX="2"/6
#> XT:_CHIT_THETA_TENS="0.0"/6
#> XT:__CHIT_TENS_L="1.736070289829"/6
#> XT:__CHIT_TENS_LR="1.736070289829"/6
#> XT:__CHIT_TENS_EXCH="1.736070289829"/6
#> XT:__ZSTAT_EXCH="2"/6
#> XT:__ZSTAT_L="2"/6
#> XT:__ZSTAT_LR="2"/6
#> XT:__XL="1.736070289829"/6
#> XT:__XR="1.736070289829"/6
#> XT:__ZL="2"/6
#> XT:__ZR="2"/6
#> XT:_ZEX="2"/6
#> XT:_CHIT_THETA_TENS="0.0"/6
#> XT:__CHIT_TENS_L="1.736070289829"/6
#> XT:__CHIT_TENS_LR="1.736070289829"/6
#> XT:__CHIT_TENS_EXCH="1.736070289829"/6
#> XT:__ZSTAT_EXCH="2"/6
#> XT:__ZSTAT_L="2"/6
#> XT:__ZSTAT_LR="2"/6
#> XT:__XL="1.736070289829"/6
#> XT:__XR="1.736070289829"/6
#> XT:__ZL="2"/6
#> XT:__ZR="2"/6
#> XT:_ZEX="2"/6
#> XT:_CHIT_THETA_TENS="0.0"/6
#> XT:__CHIT_TENS_L="1.736070289829"/6
#> XT:__CHIT_TENS_LR="1.736070289829"/6
#> XT:__CHIT_TENS_EXCH="1.736070289829"/6
#> XT:__ZSTAT_EXCH="2"/6
#> XT:__ZSTAT_L="2"/6
#> XT:__ZSTAT_LR="2"/6
#> XT:__XL="1.736070289829"/6
#> XT:__XR="1.736070289829"/6
#> XT:__ZL="2"/6
#> XT:__ZR="2"/6
#> XT:_ZEX="2"/6
#> XT:_CHIT_THETA_TENS="0.0"/6
#> XT:__CHIT_TENS_L="1.736070289829"/6
#> XT:__CHIT_TENS_LR="1.736070289829"/6
#> XT:__CHIT_TENS_EXCH="1.736070289829"/6
#> XT:__ZSTAT_EXCH="2"/6
#> XT:__ZSTAT_L="2"/6
#> XT:__ZSTAT_LR="2"/6
#> XT:__XL="1.736070289829"/6
#> XT:__XR="1.736070289829"/6
#> XT:__ZL="2"/6
#> XT:__ZR="2"/6
#> XT:_ZEX="2"/6
#> XT:_CHIT_THETA_TENS="0.0"/6
#> XT:__CHIT_TENS_L="1.736070289829"/6
#> XT:__CHIT_TENS_LR="1.736070289829"/6
#> XT:__CHIT_TENS_EXCH="1.736070289829"/6
#> XT:__ZSTAT_EXCH="2"/6
#> XT:__ZSTAT_L="2"/6
#> XT:__ZSTAT_LR="2"/6
#> XT:__XL="1.736070289829"/6
#> XT:__XR="1.736070289829"/6
#> XT:__ZL="2"/6
#> XT:__ZR="2"/6
#> XT:_ZEX="2"/6
#> XT:_CHIT_THETA_TENS="0.0"/6
#> XT:__CHIT_TENS_L="1.736070289829"/6
#> XT:__CHIT_TENS_LR="1.736070289829"/6
#> XT:__CHIT_TENS_EXCH="1.736070289829"/6
#> XT:__ZSTAT_EXCH="2"/6
#> XT:__ZSTAT_L="2"/6
#> XT:__ZSTAT_LR="2"/6
#> XT:__XL="1.736070289829"/6
#> XT:__XR="1.736070289829"/6
#> XT:__ZL="2"/6
#> XT:__ZR="2"/6
#> XT:_ZEX="2"/6
#> XT:_CHIT_THETA_TENS="0.0"/6
#> XT:__CHIT_TENS_L="1.736070289829"/6
#> XT:__CHIT_TENS_LR="1.736070289829"/6
#> XT:__CHIT_TENS_EXCH="1.736070289829"/6
#> XT:__ZSTAT_EXCH="2"/6
#> XT:__ZSTAT_L="2"/6
#> XT:__ZSTAT_LR="2"/6
#> XT:__XL="1.736070289829"/6
#> XT:__XR="1.736070289829"/6
#> XT:__ZL="2"/6
#> XT:__ZR="2"/6
#> XT:_ZEX="2"/6
#> XT:_CHIT_THETA_TENS="0.0"/6
#> XT:__CHIT_TENS_L="1.736070289829"/6
#> XT:__CHIT_TENS_LR="1.736070289829"/6
#> XT:__CHIT_TENS_EXCH="1.736070289829"/6
#> XT:__ZSTAT_EXCH="2"/6
#> XT:__ZSTAT_L="2"/6
#> XT:__ZSTAT_LR="2"/6
#> XT:__XL="1.736070289829"/6
#> XT:__XR="1.736070289829"/6
#> XT:__ZL="2"/6
#> XT:__ZR="2"/6
#> XT:_ZEX="2"/6
#> XT:_CHIT_THETA_TENS="0.0"/6
#> XT:__CHIT_TENS_L="1.736070289829"/6
#> XT:__CHIT_TENS_LR="1.736070289829"/6
#> XT:__CHIT_TENS_EXCH="1.736070289829"/6
#> XT:__ZSTAT_EXCH="2"/6
#> XT:__ZSTAT_L="2"/6
#> XT:__ZSTAT_LR="2"/6
#> XT:__XL="1.736070289829"/6
#> XT:__XR="1.736070289829"/6
#> XT:__ZL="2"/6
#> XT:__ZR="2"/6
#> XT:_ZEX="2"/6
#> XT:_CHIT_THETA_TENS="0.0"/6
#> XT:__CHIT_TENS_L="1.736070289829"/6
#> XT:__CHIT_TENS_LR="1.736070289829"/6
#> XT:__CHIT_TENS_EXCH="1.736070289829"/6
#> XT:__ZSTAT_EXCH="2"/6
#> XT:__ZSTAT_L="2"/6
#> XT:__ZSTAT_LR="2"/6
#> XT:__XL="1.736070289829"/6
#> XT:__XR="1.736070289829"/6
#> XT:__ZL="2"/6
#> XT:__ZR="2"/6
#> XT:_ZEX="2"/6
#> XT:_CHIT_THETA_TENS="0.0"/6
#> XT:__CHIT_TENS_L="1.736070289829"/6
#> XT:__CHIT_TENS_LR="1.736070289829"/6
#> XT:__CHIT_TENS_EXCH="1.736070289829"/6
#> XT:__ZSTAT_EXCH="2"/6
#> XT:__ZSTAT_L="2"/6
#> XT:__ZSTAT_LR="2"/6
#> XT:__XL="1.736070289829"/6
#> XT:__XR="1.736070289829"/6
#> XT:__ZL="2"/6
#> XT:__ZR="2"/6
#> XT:_ZEX="2"/6
#> XT:_CHIT_THETA_TENS="0.0"/6
#> XT:__CHIT_TENS_L="1.736070289829"/6
#> XT:__CHIT_TENS_LR="1.736070289829"/6
#> XT:__CHIT_TENS_EXCH="1.736070289829"/6
#> XT:__ZSTAT_EXCH="2"/6
#> XT:__ZSTAT_L="2"/6
#> XT:__ZSTAT_LR="2"/6
#> XT:__XL="1.736070289829"/6
#> XT:__XR="1.736070289829"/6
#> XT:__ZL="2"/6
#> XT:__ZR="2"/6
#> XT:_ZEX="2"/6
#> XT:_CHIT_THETA_TENS="0.0"/6
#> XT:__CHIT_TENS_L="1.736070289829"/6
#> XT:__CHIT_TENS_LR="1.736070289829"/6
#> XT:__CHIT_TENS_EXCH="1.736070289829"/6
#> XT:__ZSTAT_EXCH="2"/6
#> XT:__ZSTAT_L="2"/6
#> XT:__ZSTAT_LR="2"/6
#> XT:__XL="1.736070289829"/6
#> XT:__XR="1.736070289829"/6
#> XT:__ZL="2"/6
#> XT:__ZR="2"/6
#> XT:_ZEX="2"/6
#> XT:_CHIT_THETA_TENS="0.0"/6
#> XT:__CHIT_TENS_L="1.736070289829"/6
#> XT:__CHIT_TENS_LR="1.736070289829"/6
#> XT:__CHIT_TENS_EXCH="1.736070289829"/6
#> XT:__ZSTAT_EXCH="2"/6
#> XT:__ZSTAT_L="2"/6
#> XT:__ZSTAT_LR="2"/6
#> XT:__XL="1.736070289829"/6
#> XT:__XR="1.736070289829"/6
#> XT:__ZL="2"/6
#> XT:__ZR="2"/6
#> XT:_ZEX="2"/6
#> XT:_CHIT_THETA_TENS="0.0"/6
#> XT:__CHIT_TENS_L="1.736070289829"/6
#> XT:__CHIT_TENS_LR="1.736070289829"/6
#> XT:__CHIT_TENS_EXCH="1.736070289829"/6
#> XT:__ZSTAT_EXCH="2"/6
#> XT:__ZSTAT_L="2"/6
#> XT:__ZSTAT_LR="2"/6
#> XT:__XL="1.736070289829"/6
#> XT:__XR="1.736070289829"/6
#> XT:__ZL="2"/6
#> XT:__ZR="2"/6
#> XT:_ZEX="2"/6
#> XT:_CHIT_THETA_TENS="0.0"/6
#> XT:__CHIT_TENS_L="1.736070289829"/6
#> XT:__CHIT_TENS_LR="1.736070289829"/6
#> XT:__CHIT_TENS_EXCH="1.736070289829"/6
#> XT:__ZSTAT_EXCH="2"/6
#> XT:__ZSTAT_L="2"/6
#> XT:__ZSTAT_LR="2"/6
#> XT:__XL="1.736070289829"/6
#> XT:__XR="1.736070289829"/6
#> XT:__ZL="2"/6
#> XT:__ZR="2"/6
#> XT:_ZEX="2"/6
#> XT:_CHIT_THETA_TENS="0.0"/6
#> XT:__CHIT_TENS_L="1.736070289829"/6
#> XT:__CHIT_TENS_LR="1.736070289829"/6
#> XT:__CHIT_TENS_EXCH="1.736070289829"/6
#> XT:__ZSTAT_EXCH="2"/6
#> XT:__ZSTAT_L="2"/6
#> XT:__ZSTAT_LR="2"/6
#> XT:__XL="1.736070289829"/6
#> XT:__XR="1.736070289829"/6
#> XT:__ZL="2"/6
#> XT:__ZR="2"/6
#> XT:_ZEX="2"/6
#> XT:_CHIT_THETA_TENS="0.0"/6
#> XT:__CHIT_TENS_L="1.736070289829"/6
#> XT:__CHIT_TENS_LR="1.736070289829"/6
#> XT:__CHIT_TENS_EXCH="1.736070289829"/6
#> XT:__ZSTAT_EXCH="2"/6
#> XT:__ZSTAT_L="2"/6
#> XT:__ZSTAT_LR="2"/6
#> XT:__XL="1.736070289829"/6
#> XT:__XR="1.736070289829"/6
#> XT:__ZL="2"/6
#> XT:__ZR="2"/6
#> XT:_ZEX="2"/6
#> XT:_CHIT_THETA_TENS="0.0"/6
#> XT:__CHIT_TENS_L="1.736070289829"/6
#> XT:__CHIT_TENS_LR="1.736070289829"/6
#> XT:__CHIT_TENS_EXCH="1.736070289829"/6
#> XT:__ZSTAT_EXCH="2"/6
#> XT:__ZSTAT_L="2"/6
#> XT:__ZSTAT_LR="2"/6
#> XT:__XL="1.736070289829"/6
#> XT:__XR="1.736070289829"/6
#> XT:__ZL="2"/6
#> XT:__ZR="2"/6
#> XT:_ZEX="2"/6
#> XT:_CHIT_THETA_TENS="0.0"/6
#> XT:__CHIT_TENS_L="1.736070289829"/6
#> XT:__CHIT_TENS_LR="1.736070289829"/6
#> XT:__CHIT_TENS_EXCH="1.736070289829"/6
#> XT:__ZSTAT_EXCH="2"/6
#> XT:__ZSTAT_L="2"/6
#> XT:__ZSTAT_LR="2"/6
#> XT:__XL="1.736070289829"/6
#> XT:__XR="1.736070289829"/6
#> XT:__ZL="2"/6
#> XT:__ZR="2"/6
#> XT:_ZEX="2"/6
#> XT:_CHIT_THETA_TENS="0.0"/6
#> XT:__CHIT_TENS_L="1.736070289829"/6
#> XT:__CHIT_TENS_LR="1.736070289829"/6
#> XT:__CHIT_TENS_EXCH="1.736070289829"/6
#> XT:__ZSTAT_EXCH="2"/6
#> XT:__ZSTAT_L="2"/6
#> XT:__ZSTAT_LR="2"/6
#> XT:__XL="1.736070289829"/6
#> XT:__XR="1.736070289829"/6
#> XT:__ZL="2"/6
#> XT:__ZR="2"/6
#> XT:_ZEX="2"/6
#> XT:_CHIT_THETA_TENS="0.0"/6
#> XT:__CHIT_TENS_L="1.736070289829"/6
#> XT:__CHIT_TENS_LR="1.736070289829"/6
#> XT:__CHIT_TENS_EXCH="1.736070289829"/6
#> XT:__ZSTAT_EXCH="2"/6
#> XT:__ZSTAT_L="2"/6
#> XT:__ZSTAT_LR="2"/6
#> XT:__XL="1.736070289829"/6
#> XT:__XR="1.736070289829"/6
#> XT:__ZL="2"/6
#> XT:__ZR="2"/6
#> XT:_ZEX="2"/6
#> XT:_CHIT_THETA_TENS="0.0"/6
#> XT:__CHIT_TENS_L="1.736070289829"/6
#> XT:__CHIT_TENS_LR="1.736070289829"/6
#> XT:__CHIT_TENS_EXCH="1.736070289829"/6
#> XT:__ZSTAT_EXCH="2"/6
#> XT:__ZSTAT_L="2"/6
#> XT:__ZSTAT_LR="2"/6
#> XT:__XL="1.736070289829"/6
#> XT:__XR="1.736070289829"/6
#> XT:__ZL="2"/6
#> XT:__ZR="2"/6
#> XT:_ZEX="2"/6
#> XT:_CHIT_THETA_TENS="0.0"/6
#> XT:__CHIT_TENS_L="1.736070289829"/6
#> XT:__CHIT_TENS_LR="1.736070289829"/6
#> XT:__CHIT_TENS_EXCH="1.736070289829"/6
#> XT:__ZSTAT_EXCH="2"/6
#> XT:__ZSTAT_L="2"/6
#> XT:__ZSTAT_LR="2"/6
#> XT:__XL="1.736070289829"/6
#> XT:__XR="1.736070289829"/6
#> XT:__ZL="2"/6
#> XT:__ZR="2"/6
#> XT:_ZEX="2"/6
#> XT:_CHIT_THETA_TENS="0.0"/6
#> XT:__CHIT_TENS_L="1.736070289829"/6
#> XT:__CHIT_TENS_LR="1.736070289829"/6
#> XT:__CHIT_TENS_EXCH="1.736070289829"/6
#> XT:__ZSTAT_EXCH="2"/6
#> XT:__ZSTAT_L="2"/6
#> XT:__ZSTAT_LR="2"/6
#> XT:__XL="1.736070289829"/6
#> XT:__XR="1.736070289829"/6
#> XT:__ZL="2"/6
#> XT:__ZR="2"/6
#> XT:_ZEX="2"/6
#> XT:_CHIT_THETA_TENS="0.0"/6
#> XT:__CHIT_TENS_L="1.736070289829"/6
#> XT:__CHIT_TENS_LR="1.736070289829"/6
#> XT:__CHIT_TENS_EXCH="1.736070289829"/6
#> XT:__ZSTAT_EXCH="2"/6
#> XT:__ZSTAT_L="2"/6
#> XT:__ZSTAT_LR="2"/6
#> XT:__XL="1.736070289829"/6
#> XT:__XR="1.736070289829"/6
#> XT:__ZL="2"/6
#> XT:__ZR="2"/6
#> XT:_ZEX="2"/6
#> XT:_CHIT_THETA_TENS="0.0"/6
#> XT:__CHIT_TENS_L="1.736070289829"/6
#> XT:__CHIT_TENS_LR="1.736070289829"/6
#> XT:__CHIT_TENS_EXCH="1.736070289829"/6
#> XT:__ZSTAT_EXCH="2"/6
#> XT:__ZSTAT_L="2"/6
#> XT:__ZSTAT_LR="2"/6
#> XT:__XL="1.736070289829"/6
#> XT:__XR="1.736070289829"/6
#> XT:__ZL="2"/6
#> XT:__ZR="2"/6
#> XT:_ZEX="2"/6
#> XT:_CHIT_THETA_TENS="0.0"/6
#> XT:_T="972.370299834384"/6
#> XT:_T="2.127082886158"/6
#> XT:_CHIT_THETA="2.127082886158"/6
#> XT:_CHIT_THETA="11.313708498985"/6
#>>   3
#> XT:__CHIT_TENS_L="1.736070289829"/6
#> XT:__CHIT_TENS_LR="1.736070289829"/6
#> XT:__CHIT_TENS_EXCH="1.736070289829"/6
#> XT:__ZSTAT_EXCH="2"/6
#> XT:__ZSTAT_L="2"/6
#> XT:__ZSTAT_LR="2"/6
#> XT:__XL="1.736070289829"/6
#> XT:__XR="1.736070289829"/6
#> XT:__ZL="2"/6
#> XT:__ZR="2"/6
#> XT:_ZEX="2"/6
#> XT:_CHIT_THETA_TENS="0.0"/6
#> XT:__CHIT_TENS_L="1.736070289829"/6
#> XT:__CHIT_TENS_LR="1.736070289829"/6
#> XT:__CHIT_TENS_EXCH="1.736070289829"/6
#> XT:__ZSTAT_EXCH="2"/6
#> XT:__ZSTAT_L="2"/6
#> XT:__ZSTAT_LR="2"/6
#> XT:__XL="1.736070289829"/6
#> XT:__XR="1.736070289829"/6
#> XT:__ZL="2"/6
#> XT:__ZR="2"/6
#> XT:_ZEX="2"/6
#> XT:_CHIT_THETA_TENS="0.0"/6
#> XT:__CHIT_TENS_L="1.736070289829"/6
#> XT:__CHIT_TENS_LR="1.736070289829"/6
#> XT:__CHIT_TENS_EXCH="1.736070289829"/6
#> XT:__ZSTAT_EXCH="2"/6
#> XT:__ZSTAT_L="2"/6
#> XT:__ZSTAT_LR="2"/6
#> XT:__XL="1.736070289829"/6
#> XT:__XR="1.736070289829"/6
#> XT:__ZL="2"/6
#> XT:__ZR="2"/6
#> XT:_ZEX="2"/6
#> XT:_CHIT_THETA_TENS="0.0"/6
#> XT:__CHIT_TENS_L="1.736070289829"/6
#> XT:__CHIT_TENS_LR="1.736070289829"/6
#> XT:__CHIT_TENS_EXCH="1.736070289829"/6
#> XT:__ZSTAT_EXCH="2"/6
#> XT:__ZSTAT_L="2"/6
#> XT:__ZSTAT_LR="2"/6
#> XT:__XL="1.736070289829"/6
#> XT:__XR="1.736070289829"/6
#> XT:__ZL="2"/6
#> XT:__ZR="2"/6
#> XT:_ZEX="2"/6
#> XT:_CHIT_THETA_TENS="0.0"/6
#> XT:__CHIT_TENS_L="1.736070289829"/6
#> XT:__CHIT_TENS_LR="1.736070289829"/6
#> XT:__CHIT_TENS_EXCH="1.736070289829"/6
#> XT:__ZSTAT_EXCH="2"/6
#> XT:__ZSTAT_L="2"/6
#> XT:__ZSTAT_LR="2"/6
#> XT:__XL="1.736070289829"/6
#> XT:__XR="1.736070289829"/6
#> XT:__ZL="2"/6
#> XT:__ZR="2"/6
#> XT:_ZEX="2"/6
#> XT:_CHIT_THETA_TENS="0.0"/6
#> XT:__CHIT_TENS_L="1.736070289829"/6
#> XT:__CHIT_TENS_LR="1.736070289829"/6
#> XT:__CHIT_TENS_EXCH="1.736070289829"/6
#> XT:__ZSTAT_EXCH="2"/6
#> XT:__ZSTAT_L="2"/6
#> XT:__ZSTAT_LR="2"/6
#> XT:__XL="1.736070289829"/6
#> XT:__XR="1.736070289829"/6
#> XT:__ZL="2"/6
#> XT:__ZR="2"/6
#> XT:_ZEX="2"/6
#> XT:_CHIT_THETA_TENS="0.0"/6
#> XT:__CHIT_TENS_L="1.736070289829"/6
#> XT:__CHIT_TENS_LR="1.736070289829"/6
#> XT:__CHIT_TENS_EXCH="1.736070289829"/6
#> XT:__ZSTAT_EXCH="2"/6
#> XT:__ZSTAT_L="2"/6
#> XT:__ZSTAT_LR="2"/6
#> XT:__XL="1.736070289829"/6
#> XT:__XR="1.736070289829"/6
#> XT:__ZL="2"/6
#> XT:__ZR="2"/6
#> XT:_ZEX="2"/6
#> XT:_CHIT_THETA_TENS="0.0"/6
#> XT:__CHIT_TENS_L="1.736070289829"/6
#> XT:__CHIT_TENS_LR="1.736070289829"/6
#> XT:__CHIT_TENS_EXCH="1.736070289829"/6
#> XT:__ZSTAT_EXCH="2"/6
#> XT:__ZSTAT_L="2"/6
#> XT:__ZSTAT_LR="2"/6
#> XT:__XL="1.736070289829"/6
#> XT:__XR="1.736070289829"/6
#> XT:__ZL="2"/6
#> XT:__ZR="2"/6
#> XT:_ZEX="2"/6
#> XT:_CHIT_THETA_TENS="0.0"/6
#> XT:__CHIT_TENS_L="1.736070289829"/6
#> XT:__CHIT_TENS_LR="1.736070289829"/6
#> XT:__CHIT_TENS_EXCH="1.736070289829"/6
#> XT:__ZSTAT_EXCH="2"/6
#> XT:__ZSTAT_L="2"/6
#> XT:__ZSTAT_LR="2"/6
#> XT:__XL="1.736070289829"/6
#> XT:__XR="1.736070289829"/6
#> XT:__ZL="2"/6
#> XT:__ZR="2"/6
#> XT:_ZEX="2"/6
#> XT:_CHIT_THETA_TENS="0.0"/6
#> XT:__CHIT_TENS_L="1.736070289829"/6
#> XT:__CHIT_TENS_LR="1.736070289829"/6
#> XT:__CHIT_TENS_EXCH="1.736070289829"/6
#> XT:__ZSTAT_EXCH="2"/6
#> XT:__ZSTAT_L="2"/6
#> XT:__ZSTAT_LR="2"/6
#> XT:__XL="1.736070289829"/6
#> XT:__XR="1.736070289829"/6
#> XT:__ZL="2"/6
#> XT:__ZR="2"/6
#> XT:_ZEX="2"/6
#> XT:_CHIT_THETA_TENS="0.0"/6
#> XT:__CHIT_TENS_L="1.736070289829"/6
#> XT:__CHIT_TENS_LR="1.736070289829"/6
#> XT:__CHIT_TENS_EXCH="1.736070289829"/6
#> XT:__ZSTAT_EXCH="2"/6
#> XT:__ZSTAT_L="2"/6
#> XT:__ZSTAT_LR="2"/6
#> XT:__XL="1.736070289829"/6
#> XT:__XR="1.736070289829"/6
#> XT:__ZL="2"/6
#> XT:__ZR="2"/6
#> XT:_ZEX="2"/6
#> XT:_CHIT_THETA_TENS="0.0"/6
#> XT:__CHIT_TENS_L="1.736070289829"/6
#> XT:__CHIT_TENS_LR="1.736070289829"/6
#> XT:__CHIT_TENS_EXCH="1.736070289829"/6
#> XT:__ZSTAT_EXCH="2"/6
#> XT:__ZSTAT_L="2"/6
#> XT:__ZSTAT_LR="2"/6
#> XT:__XL="1.736070289829"/6
#> XT:__XR="1.736070289829"/6
#> XT:__ZL="2"/6
#> XT:__ZR="2"/6
#> XT:_ZEX="2"/6
#> XT:_CHIT_THETA_TENS="0.0"/6
#> XT:__CHIT_TENS_L="1.736070289829"/6
#> XT:__CHIT_TENS_LR="1.736070289829"/6
#> XT:__CHIT_TENS_EXCH="1.736070289829"/6
#> XT:__ZSTAT_EXCH="2"/6
#> XT:__ZSTAT_L="2"/6
#> XT:__ZSTAT_LR="2"/6
#> XT:__XL="1.736070289829"/6
#> XT:__XR="1.736070289829"/6
#> XT:__ZL="2"/6
#> XT:__ZR="2"/6
#> XT:_ZEX="2"/6
#> XT:_CHIT_THETA_TENS="0.0"/6
#> XT:__CHIT_TENS_L="1.736070289829"/6
#> XT:__CHIT_TENS_LR="1.736070289829"/6
#> XT:__CHIT_TENS_EXCH="1.736070289829"/6
#> XT:__ZSTAT_EXCH="2"/6
#> XT:__ZSTAT_L="2"/6
#> XT:__ZSTAT_LR="2"/6
#> XT:__XL="1.736070289829"/6
#> XT:__XR="1.736070289829"/6
#> XT:__ZL="2"/6
#> XT:__ZR="2"/6
#> XT:_ZEX="2"/6
#> XT:_CHIT_THETA_TENS="0.0"/6
#> XT:__CHIT_TENS_L="1.736070289829"/6
#> XT:__CHIT_TENS_LR="1.736070289829"/6
#> XT:__CHIT_TENS_EXCH="1.736070289829"/6
#> XT:__ZSTAT_EXCH="2"/6
#> XT:__ZSTAT_L="2"/6
#> XT:__ZSTAT_LR="2"/6
#> XT:__XL="1.736070289829"/6
#> XT:__XR="1.736070289829"/6
#> XT:__ZL="2"/6
#> XT:__ZR="2"/6
#> XT:_ZEX="2"/6
#> XT:_CHIT_THETA_TENS="0.0"/6
#> XT:__CHIT_TENS_L="1.736070289829"/6
#> XT:__CHIT_TENS_LR="1.736070289829"/6
#> XT:__CHIT_TENS_EXCH="1.736070289829"/6
#> XT:__ZSTAT_EXCH="2"/6
#> XT:__ZSTAT_L="2"/6
#> XT:__ZSTAT_LR="2"/6
#> XT:__XL="1.736070289829"/6
#> XT:__XR="1.736070289829"/6
#> XT:__ZL="2"/6
#> XT:__ZR="2"/6
#> XT:_ZEX="2"/6
#> XT:_CHIT_THETA_TENS="0.0"/6
#> XT:__CHIT_TENS_L="1.736070289829"/6
#> XT:__CHIT_TENS_LR="1.736070289829"/6
#> XT:__CHIT_TENS_EXCH="1.736070289829"/6
#> XT:__ZSTAT_EXCH="2"/6
#> XT:__ZSTAT_L="2"/6
#> XT:__ZSTAT_LR="2"/6
#> XT:__XL="1.736070289829"/6
#> XT:__XR="1.736070289829"/6
#> XT:__ZL="2"/6
#> XT:__ZR="2"/6
#> XT:_ZEX="2"/6
#> XT:_CHIT_THETA_TENS="0.0"/6
#> XT:__CHIT_TENS_L="1.736070289829"/6
#> XT:__CHIT_TENS_LR="1.736070289829"/6
#> XT:__CHIT_TENS_EXCH="1.736070289829"/6
#> XT:__ZSTAT_EXCH="2"/6
#> XT:__ZSTAT_L="2"/6
#> XT:__ZSTAT_LR="2"/6
#> XT:__XL="1.736070289829"/6
#> XT:__XR="1.736070289829"/6
#> XT:__ZL="2"/6
#> XT:__ZR="2"/6
#> XT:_ZEX="2"/6
#> XT:_CHIT_THETA_TENS="0.0"/6
#> XT:__CHIT_TENS_L="1.736070289829"/6
#> XT:__CHIT_TENS_LR="1.736070289829"/6
#> XT:__CHIT_TENS_EXCH="1.736070289829"/6
#> XT:__ZSTAT_EXCH="2"/6
#> XT:__ZSTAT_L="2"/6
#> XT:__ZSTAT_LR="2"/6
#> XT:__XL="1.736070289829"/6
#> XT:__XR="1.736070289829"/6
#> XT:__ZL="2"/6
#> XT:__ZR="2"/6
#> XT:_ZEX="2"/6
#> XT:_CHIT_THETA_TENS="0.0"/6
#> XT:__CHIT_TENS_L="1.736070289829"/6
#> XT:__CHIT_TENS_LR="1.736070289829"/6
#> XT:__CHIT_TENS_EXCH="1.736070289829"/6
#> XT:__ZSTAT_EXCH="2"/6
#> XT:__ZSTAT_L="2"/6
#> XT:__ZSTAT_LR="2"/6
#> XT:__XL="1.736070289829"/6
#> XT:__XR="1.736070289829"/6
#> XT:__ZL="2"/6
#> XT:__ZR="2"/6
#> XT:_ZEX="2"/6
#> XT:_CHIT_THETA_TENS="0.0"/6
#> XT:__CHIT_TENS_L="1.736070289829"/6
#> XT:__CHIT_TENS_LR="1.736070289829"/6
#> XT:__CHIT_TENS_EXCH="1.736070289829"/6
#> XT:__ZSTAT_EXCH="2"/6
#> XT:__ZSTAT_L="2"/6
#> XT:__ZSTAT_LR="2"/6
#> XT:__XL="1.736070289829"/6
#> XT:__XR="1.736070289829"/6
#> XT:__ZL="2"/6
#> XT:__ZR="2"/6
#> XT:_ZEX="2"/6
#> XT:_CHIT_THETA_TENS="0.0"/6
#> XT:__CHIT_TENS_L="1.736070289829"/6
#> XT:__CHIT_TENS_LR="1.736070289829"/6
#> XT:__CHIT_TENS_EXCH="1.736070289829"/6
#> XT:__ZSTAT_EXCH="2"/6
#> XT:__ZSTAT_L="2"/6
#> XT:__ZSTAT_LR="2"/6
#> XT:__XL="1.736070289829"/6
#> XT:__XR="1.736070289829"/6
#> XT:__ZL="2"/6
#> XT:__ZR="2"/6
#> XT:_ZEX="2"/6
#> XT:_CHIT_THETA_TENS="0.0"/6
#> XT:__CHIT_TENS_L="1.736070289829"/6
#> XT:__CHIT_TENS_LR="1.736070289829"/6
#> XT:__CHIT_TENS_EXCH="1.736070289829"/6
#> XT:__ZSTAT_EXCH="2"/6
#> XT:__ZSTAT_L="2"/6
#> XT:__ZSTAT_LR="2"/6
#> XT:__XL="1.736070289829"/6
#> XT:__XR="1.736070289829"/6
#> XT:__ZL="2"/6
#> XT:__ZR="2"/6
#> XT:_ZEX="2"/6
#> XT:_CHIT_THETA_TENS="0.0"/6
#> XT:__CHIT_TENS_L="1.736070289829"/6
#> XT:__CHIT_TENS_LR="1.736070289829"/6
#> XT:__CHIT_TENS_EXCH="1.736070289829"/6
#> XT:__ZSTAT_EXCH="2"/6
#> XT:__ZSTAT_L="2"/6
#> XT:__ZSTAT_LR="2"/6
#> XT:__XL="1.736070289829"/6
#> XT:__XR="1.736070289829"/6
#> XT:__ZL="2"/6
#> XT:__ZR="2"/6
#> XT:_ZEX="2"/6
#> XT:_CHIT_THETA_TENS="0.0"/6
#> XT:__CHIT_TENS_L="1.736070289829"/6
#> XT:__CHIT_TENS_LR="1.736070289829"/6
#> XT:__CHIT_TENS_EXCH="1.736070289829"/6
#> XT:__ZSTAT_EXCH="2"/6
#> XT:__ZSTAT_L="2"/6
#> XT:__ZSTAT_LR="2"/6
#> XT:__XL="1.736070289829"/6
#> XT:__XR="1.736070289829"/6
#> XT:__ZL="2"/6
#> XT:__ZR="2"/6
#> XT:_ZEX="2"/6
#> XT:_CHIT_THETA_TENS="0.0"/6
#> XT:__CHIT_TENS_L="1.736070289829"/6
#> XT:__CHIT_TENS_LR="1.736070289829"/6
#> XT:__CHIT_TENS_EXCH="1.736070289829"/6
#> XT:__ZSTAT_EXCH="2"/6
#> XT:__ZSTAT_L="2"/6
#> XT:__ZSTAT_LR="2"/6
#> XT:__XL="1.736070289829"/6
#> XT:__XR="1.736070289829"/6
#> XT:__ZL="2"/6
#> XT:__ZR="2"/6
#> XT:_ZEX="2"/6
#> XT:_CHIT_THETA_TENS="0.0"/6
#> XT:__CHIT_TENS_L="1.736070289829"/6
#> XT:__CHIT_TENS_LR="1.736070289829"/6
#> XT:__CHIT_TENS_EXCH="1.736070289829"/6
#> XT:__ZSTAT_EXCH="2"/6
#> XT:__ZSTAT_L="2"/6
#> XT:__ZSTAT_LR="2"/6
#> XT:__XL="1.736070289829"/6
#> XT:__XR="1.736070289829"/6
#> XT:__ZL="2"/6
#> XT:__ZR="2"/6
#> XT:_ZEX="2"/6
#> XT:_CHIT_THETA_TENS="0.0"/6
#> XT:__CHIT_TENS_L="1.736070289829"/6
#> XT:__CHIT_TENS_LR="1.736070289829"/6
#> XT:__CHIT_TENS_EXCH="1.736070289829"/6
#> XT:__ZSTAT_EXCH="2"/6
#> XT:__ZSTAT_L="2"/6
#> XT:__ZSTAT_LR="2"/6
#> XT:__XL="1.736070289829"/6
#> XT:__XR="1.736070289829"/6
#> XT:__ZL="2"/6
#> XT:__ZR="2"/6
#> XT:_ZEX="2"/6
#> XT:_CHIT_THETA_TENS="0.0"/6
#> XT:__CHIT_TENS_L="1.736070289829"/6
#> XT:__CHIT_TENS_LR="1.736070289829"/6
#> XT:__CHIT_TENS_EXCH="1.736070289829"/6
#> XT:__ZSTAT_EXCH="2"/6
#> XT:__ZSTAT_L="2"/6
#> XT:__ZSTAT_LR="2"/6
#> XT:__XL="1.736070289829"/6
#> XT:__XR="1.736070289829"/6
#> XT:__ZL="2"/6
#> XT:__ZR="2"/6
#> XT:_ZEX="2"/6
#> XT:_CHIT_THETA_TENS="0.0"/6
#> XT:__CHIT_TENS_L="1.736070289829"/6
#> XT:__CHIT_TENS_LR="1.736070289829"/6
#> XT:__CHIT_TENS_EXCH="1.736070289829"/6
#> XT:__ZSTAT_EXCH="2"/6
#> XT:__ZSTAT_L="2"/6
#> XT:__ZSTAT_LR="2"/6
#> XT:__XL="1.736070289829"/6
#> XT:__XR="1.736070289829"/6
#> XT:__ZL="2"/6
#> XT:__ZR="2"/6
#> XT:_ZEX="2"/6
#> XT:_CHIT_THETA_TENS="0.0"/6
#> XT:__CHIT_TENS_L="1.736070289829"/6
#> XT:__CHIT_TENS_LR="1.736070289829"/6
#> XT:__CHIT_TENS_EXCH="1.736070289829"/6
#> XT:__ZSTAT_EXCH="2"/6
#> XT:__ZSTAT_L="2"/6
#> XT:__ZSTAT_LR="2"/6
#> XT:__XL="1.736070289829"/6
#> XT:__XR="1.736070289829"/6
#> XT:__ZL="2"/6
#> XT:__ZR="2"/6
#> XT:_ZEX="2"/6
#> XT:_CHIT_THETA_TENS="0.0"/6
#> XT:__CHIT_TENS_L="1.736070289829"/6
#> XT:__CHIT_TENS_LR="1.736070289829"/6
#> XT:__CHIT_TENS_EXCH="1.736070289829"/6
#> XT:__ZSTAT_EXCH="2"/6
#> XT:__ZSTAT_L="2"/6
#> XT:__ZSTAT_LR="2"/6
#> XT:__XL="1.736070289829"/6
#> XT:__XR="1.736070289829"/6
#> XT:__ZL="2"/6
#> XT:__ZR="2"/6
#> XT:_ZEX="2"/6
#> XT:_CHIT_THETA_TENS="0.0"/6
#> XT:_T="972.370299834384"/6
#> XT:_T="2.127082886158"/6
#> XT:_CHIT_THETA="2.127082886158"/6
#> XT:_CHIT_THETA="11.313708498985"/6
#>>   4
#> XT:____XR="1.736070289829"/6
#> XT:____XL="1.736070289829"/6
#> XT:__SMUL="0.867029692037"/6
#> XT:__SMUR="0.867029692037"/6
#> XT:___SSL="0.433012701892"/6
#> XT:___SSR="0.433012701892"/6
#> XT:_CHIT_TENS_TOT="1.736070289829"/6
#> XT:_CHIT_THETA_TENS="1.735758118748"/6
#> XT:_SMU_CHIT_TENS_TOT="0.867029692037"/6
#> XT:__SS_CHIT_TENS_TOT="0.433012701892"/6
#> XT:____XR="1.736070289829"/6
#> XT:____XL="1.736070289829"/6
#> XT:__SMUL="0.867029692037"/6
#> XT:__SMUR="0.867029692037"/6
#> XT:___SSL="0.433012701892"/6
#> XT:___SSR="0.433012701892"/6
#> XT:_CHIT_TENS_TOT="1.736070289829"/6
#> XT:_CHIT_THETA_TENS="0.377657629062"/6
#> XT:_SMU_CHIT_TENS_TOT="0.867029692037"/6
#> XT:__SS_CHIT_TENS_TOT="0.433012701892"/6
#> XT:____XR="1.736070289829"/6
#> XT:____XL="1.736070289829"/6
#> XT:__SMUL="0.867029692037"/6
#> XT:__SMUR="0.867029692037"/6
#> XT:___SSL="0.433012701892"/6
#> XT:___SSR="0.433012701892"/6
#> XT:_CHIT_TENS_TOT="1.736070289829"/6
#> XT:_CHIT_THETA_TENS="1.736007846630"/6
#> XT:_SMU_CHIT_TENS_TOT="0.867029692037"/6
#> XT:__SS_CHIT_TENS_TOT="0.433012701892"/6
#> XT:____XR="1.736070289829"/6
#> XT:____XL="1.736070289829"/6
#> XT:__SMUL="0.867029692037"/6
#> XT:__SMUR="0.867029692037"/6
#> XT:___SSL="0.433012701892"/6
#> XT:___SSR="0.433012701892"/6
#> XT:_CHIT_TENS_TOT="1.736070289829"/6
#> XT:_CHIT_THETA_TENS="1.736039067668"/6
#> XT:_SMU_CHIT_TENS_TOT="0.867029692037"/6
#> XT:__SS_CHIT_TENS_TOT="0.433012701892"/6
#> XT:____XR="1.736070289829"/6
#> XT:____XL="1.736070289829"/6
#> XT:__SMUL="0.867029692037"/6
#> XT:__SMUR="0.867029692037"/6
#> XT:___SSL="0.433012701892"/6
#> XT:___SSR="0.433012701892"/6
#> XT:_CHIT_TENS_TOT="1.736070289829"/6
#> XT:_CHIT_THETA_TENS="1.736049474930"/6
#> XT:_SMU_CHIT_TENS_TOT="0.867029692037"/6
#> XT:__SS_CHIT_TENS_TOT="0.433012701892"/6
#> XT:____XR="1.736070289829"/6
#> XT:____XL="1.736070289829"/6
#> XT:__SMUL="0.867029692037"/6
#> XT:__SMUR="0.867029692037"/6
#> XT:___SSL="0.433012701892"/6
#> XT:___SSR="0.433012701892"/6
#> XT:_CHIT_TENS_TOT="1.736070289829"/6
#> XT:_CHIT_THETA_TENS="1.736054678608"/6
#> XT:_SMU_CHIT_TENS_TOT="0.867029692037"/6
#> XT:__SS_CHIT_TENS_TOT="0.433012701892"/6
#> XT:____XR="1.736070289829"/6
#> XT:____XL="1.736070289829"/6
#> XT:__SMUL="0.867029692037"/6
#> XT:__SMUR="0.867029692037"/6
#> XT:___SSL="0.433012701892"/6
#> XT:___SSR="0.433012701892"/6
#> XT:_CHIT_TENS_TOT="1.736070289829"/6
#> XT:_CHIT_THETA_TENS="1.736057800830"/6
#> XT:_SMU_CHIT_TENS_TOT="0.867029692037"/6
#> XT:__SS_CHIT_TENS_TOT="0.433012701892"/6
#> XT:____XR="1.736070289829"/6
#> XT:____XL="1.736070289829"/6
#> XT:__SMUL="0.867029692037"/6
#> XT:__SMUR="0.867029692037"/6
#> XT:___SSL="0.433012701892"/6
#> XT:___SSR="0.433012701892"/6
#> XT:_CHIT_TENS_TOT="1.736070289829"/6
#> XT:_CHIT_THETA_TENS="1.736059882317"/6
#> XT:_SMU_CHIT_TENS_TOT="0.867029692037"/6
#> XT:__SS_CHIT_TENS_TOT="0.433012701892"/6
#> XT:____XR="1.736070289829"/6
#> XT:____XL="1.736070289829"/6
#> XT:__SMUL="0.867029692037"/6
#> XT:__SMUR="0.867029692037"/6
#> XT:___SSL="0.433012701892"/6
#> XT:___SSR="0.433012701892"/6
#> XT:_CHIT_TENS_TOT="1.736070289829"/6
#> XT:_CHIT_THETA_TENS="1.736061369097"/6
#> XT:_SMU_CHIT_TENS_TOT="0.867029692037"/6
#> XT:__SS_CHIT_TENS_TOT="0.433012701892"/6
#> XT:____XR="1.736070289829"/6
#> XT:____XL="1.736070289829"/6
#> XT:__SMUL="0.867029692037"/6
#> XT:__SMUR="0.867029692037"/6
#> XT:___SSL="0.433012701892"/6
#> XT:___SSR="0.433012701892"/6
#> XT:_CHIT_TENS_TOT="1.736070289829"/6
#> XT:_CHIT_THETA_TENS="1.736062484184"/6
#> XT:_SMU_CHIT_TENS_TOT="0.867029692037"/6
#> XT:__SS_CHIT_TENS_TOT="0.433012701892"/6
#> XT:____XR="1.736070289829"/6
#> XT:____XL="1.736070289829"/6
#> XT:__SMUL="0.867029692037"/6
#> XT:__SMUR="0.867029692037"/6
#> XT:___SSL="0.433012701892"/6
#> XT:___SSR="0.433012701892"/6
#> XT:_CHIT_TENS_TOT="1.736070289829"/6
#> XT:_CHIT_THETA_TENS="1.736063351474"/6
#> XT:_SMU_CHIT_TENS_TOT="0.867029692037"/6
#> XT:__SS_CHIT_TENS_TOT="0.433012701892"/6
#> XT:____XR="1.736070289829"/6
#> XT:____XL="1.736070289829"/6
#> XT:__SMUL="0.867029692037"/6
#> XT:__SMUR="0.867029692037"/6
#> XT:___SSL="0.433012701892"/6
#> XT:___SSR="0.433012701892"/6
#> XT:_CHIT_TENS_TOT="1.736070289829"/6
#> XT:_CHIT_THETA_TENS="1.736064045307"/6
#> XT:_SMU_CHIT_TENS_TOT="0.867029692037"/6
#> XT:__SS_CHIT_TENS_TOT="0.433012701892"/6
#> XT:____XR="1.736070289829"/6
#> XT:____XL="1.736070289829"/6
#> XT:__SMUL="0.867029692037"/6
#> XT:__SMUR="0.867029692037"/6
#> XT:___SSL="0.433012701892"/6
#> XT:___SSR="0.433012701892"/6
#> XT:_CHIT_TENS_TOT="1.736070289829"/6
#> XT:_CHIT_THETA_TENS="1.736064612989"/6
#> XT:_SMU_CHIT_TENS_TOT="0.867029692037"/6
#> XT:__SS_CHIT_TENS_TOT="0.433012701892"/6
#> XT:____XR="1.736070289829"/6
#> XT:____XL="1.736070289829"/6
#> XT:__SMUL="0.867029692037"/6
#> XT:__SMUR="0.867029692037"/6
#> XT:___SSL="0.433012701892"/6
#> XT:___SSR="0.433012701892"/6
#> XT:_CHIT_TENS_TOT="1.736070289829"/6
#> XT:_CHIT_THETA_TENS="1.736065086058"/6
#> XT:_SMU_CHIT_TENS_TOT="0.867029692037"/6
#> XT:__SS_CHIT_TENS_TOT="0.433012701892"/6
#> XT:____XR="1.736070289829"/6
#> XT:____XL="1.736070289829"/6
#> XT:__SMUL="0.867029692037"/6
#> XT:__SMUR="0.867029692037"/6
#> XT:___SSL="0.433012701892"/6
#> XT:___SSR="0.433012701892"/6
#> XT:_CHIT_TENS_TOT="1.736070289829"/6
#> XT:_CHIT_THETA_TENS="1.736065486347"/6
#> XT:_SMU_CHIT_TENS_TOT="0.867029692037"/6
#> XT:__SS_CHIT_TENS_TOT="0.433012701892"/6
#> XT:____XR="1.736070289829"/6
#> XT:____XL="1.736070289829"/6
#> XT:__SMUL="0.867029692037"/6
#> XT:__SMUR="0.867029692037"/6
#> XT:___SSL="0.433012701892"/6
#> XT:___SSR="0.433012701892"/6
#> XT:_CHIT_TENS_TOT="1.736070289829"/6
#> XT:_CHIT_THETA_TENS="1.736065829452"/6
#> XT:_SMU_CHIT_TENS_TOT="0.867029692037"/6
#> XT:__SS_CHIT_TENS_TOT="0.433012701892"/6
#> XT:____XR="1.736070289829"/6
#> XT:____XL="1.736070289829"/6
#> XT:__SMUL="0.867029692037"/6
#> XT:__SMUR="0.867029692037"/6
#> XT:___SSL="0.433012701892"/6
#> XT:___SSR="0.433012701892"/6
#> XT:_CHIT_TENS_TOT="1.736070289829"/6
#> XT:_CHIT_THETA_TENS="1.736066126810"/6
#> XT:_SMU_CHIT_TENS_TOT="0.867029692037"/6
#> XT:__SS_CHIT_TENS_TOT="0.433012701892"/6
#> XT:____XR="1.736070289829"/6
#> XT:____XL="1.736070289829"/6
#> XT:__SMUL="0.867029692037"/6
#> XT:__SMUR="0.867029692037"/6
#> XT:___SSL="0.433012701892"/6
#> XT:___SSR="0.433012701892"/6
#> XT:_CHIT_TENS_TOT="1.736070289829"/6
#> XT:_CHIT_THETA_TENS="1.736066386998"/6
#> XT:_SMU_CHIT_TENS_TOT="0.867029692037"/6
#> XT:__SS_CHIT_TENS_TOT="0.433012701892"/6
#> XT:____XR="1.736070289829"/6
#> XT:____XL="1.736070289829"/6
#> XT:__SMUL="0.867029692037"/6
#> XT:__SMUR="0.867029692037"/6
#> XT:___SSL="0.433012701892"/6
#> XT:___SSR="0.433012701892"/6
#> XT:_CHIT_TENS_TOT="1.736070289829"/6
#> XT:_CHIT_THETA_TENS="1.736066616576"/6
#> XT:_SMU_CHIT_TENS_TOT="0.867029692037"/6
#> XT:__SS_CHIT_TENS_TOT="0.433012701892"/6
#> XT:____XR="1.736070289829"/6
#> XT:____XL="1.736070289829"/6
#> XT:__SMUL="0.867029692037"/6
#> XT:__SMUR="0.867029692037"/6
#> XT:___SSL="0.433012701892"/6
#> XT:___SSR="0.433012701892"/6
#> XT:_CHIT_TENS_TOT="1.736070289829"/6
#> XT:_CHIT_THETA_TENS="1.736066820645"/6
#> XT:_SMU_CHIT_TENS_TOT="0.867029692037"/6
#> XT:__SS_CHIT_TENS_TOT="0.433012701892"/6
#> XT:____XR="1.736070289829"/6
#> XT:____XL="1.736070289829"/6
#> XT:__SMUL="0.867029692037"/6
#> XT:__SMUR="0.867029692037"/6
#> XT:___SSL="0.433012701892"/6
#> XT:___SSR="0.433012701892"/6
#> XT:_CHIT_TENS_TOT="1.736070289829"/6
#> XT:_CHIT_THETA_TENS="1.736067003233"/6
#> XT:_SMU_CHIT_TENS_TOT="0.867029692037"/6
#> XT:__SS_CHIT_TENS_TOT="0.433012701892"/6
#> XT:____XR="1.736070289829"/6
#> XT:____XL="1.736070289829"/6
#> XT:__SMUL="0.867029692037"/6
#> XT:__SMUR="0.867029692037"/6
#> XT:___SSL="0.433012701892"/6
#> XT:___SSR="0.433012701892"/6
#> XT:_CHIT_TENS_TOT="1.736070289829"/6
#> XT:_CHIT_THETA_TENS="1.736067167563"/6
#> XT:_SMU_CHIT_TENS_TOT="0.867029692037"/6
#> XT:__SS_CHIT_TENS_TOT="0.433012701892"/6
#> XT:____XR="1.736070289829"/6
#> XT:____XL="1.736070289829"/6
#> XT:__SMUL="0.867029692037"/6
#> XT:__SMUR="0.867029692037"/6
#> XT:___SSL="0.433012701892"/6
#> XT:___SSR="0.433012701892"/6
#> XT:_CHIT_TENS_TOT="1.736070289829"/6
#> XT:_CHIT_THETA_TENS="1.736067316242"/6
#> XT:_SMU_CHIT_TENS_TOT="0.867029692037"/6
#> XT:__SS_CHIT_TENS_TOT="0.433012701892"/6
#> XT:____XR="1.736070289829"/6
#> XT:____XL="1.736070289829"/6
#> XT:__SMUL="0.867029692037"/6
#> XT:__SMUR="0.867029692037"/6
#> XT:___SSL="0.433012701892"/6
#> XT:___SSR="0.433012701892"/6
#> XT:_CHIT_TENS_TOT="1.736070289829"/6
#> XT:_CHIT_THETA_TENS="1.736067451405"/6
#> XT:_SMU_CHIT_TENS_TOT="0.867029692037"/6
#> XT:__SS_CHIT_TENS_TOT="0.433012701892"/6
#> XT:____XR="1.736070289829"/6
#> XT:____XL="1.736070289829"/6
#> XT:__SMUL="0.867029692037"/6
#> XT:__SMUR="0.867029692037"/6
#> XT:___SSL="0.433012701892"/6
#> XT:___SSR="0.433012701892"/6
#> XT:_CHIT_TENS_TOT="1.736070289829"/6
#> XT:_CHIT_THETA_TENS="1.736067574814"/6
#> XT:_SMU_CHIT_TENS_TOT="0.867029692037"/6
#> XT:__SS_CHIT_TENS_TOT="0.433012701892"/6
#> XT:____XR="1.736070289829"/6
#> XT:____XL="1.736070289829"/6
#> XT:__SMUL="0.867029692037"/6
#> XT:__SMUR="0.867029692037"/6
#> XT:___SSL="0.433012701892"/6
#> XT:___SSR="0.433012701892"/6
#> XT:_CHIT_TENS_TOT="1.736070289829"/6
#> XT:_CHIT_THETA_TENS="1.736067687940"/6
#> XT:_SMU_CHIT_TENS_TOT="0.867029692037"/6
#> XT:__SS_CHIT_TENS_TOT="0.433012701892"/6
#> XT:____XR="1.736070289829"/6
#> XT:____XL="1.736070289829"/6
#> XT:__SMUL="0.867029692037"/6
#> XT:__SMUR="0.867029692037"/6
#> XT:___SSL="0.433012701892"/6
#> XT:___SSR="0.433012701892"/6
#> XT:_CHIT_TENS_TOT="1.736070289829"/6
#> XT:_CHIT_THETA_TENS="1.736067792015"/6
#> XT:_SMU_CHIT_TENS_TOT="0.867029692037"/6
#> XT:__SS_CHIT_TENS_TOT="0.433012701892"/6
#> XT:____XR="1.736070289829"/6
#> XT:____XL="1.736070289829"/6
#> XT:__SMUL="0.867029692037"/6
#> XT:__SMUR="0.867029692037"/6
#> XT:___SSL="0.433012701892"/6
#> XT:___SSR="0.433012701892"/6
#> XT:_CHIT_TENS_TOT="1.736070289829"/6
#> XT:_CHIT_THETA_TENS="1.736067888085"/6
#> XT:_SMU_CHIT_TENS_TOT="0.867029692037"/6
#> XT:__SS_CHIT_TENS_TOT="0.433012701892"/6
#> XT:____XR="1.736070289829"/6
#> XT:____XL="1.736070289829"/6
#> XT:__SMUL="0.867029692037"/6
#> XT:__SMUR="0.867029692037"/6
#> XT:___SSL="0.433012701892"/6
#> XT:___SSR="0.433012701892"/6
#> XT:_CHIT_TENS_TOT="1.736070289829"/6
#> XT:_CHIT_THETA_TENS="1.736067977038"/6
#> XT:_SMU_CHIT_TENS_TOT="0.867029692037"/6
#> XT:__SS_CHIT_TENS_TOT="0.433012701892"/6
#> XT:____XR="1.736070289829"/6
#> XT:____XL="1.736070289829"/6
#> XT:__SMUL="0.867029692037"/6
#> XT:__SMUR="0.867029692037"/6
#> XT:___SSL="0.433012701892"/6
#> XT:___SSR="0.433012701892"/6
#> XT:_CHIT_TENS_TOT="1.736070289829"/6
#> XT:_CHIT_THETA_TENS="1.736068059638"/6
#> XT:_SMU_CHIT_TENS_TOT="0.867029692037"/6
#> XT:__SS_CHIT_TENS_TOT="0.433012701892"/6
#> XT:____XR="1.736070289829"/6
#> XT:____XL="1.736070289829"/6
#> XT:__SMUL="0.867029692037"/6
#> XT:__SMUR="0.867029692037"/6
#> XT:___SSL="0.433012701892"/6
#> XT:___SSR="0.433012701892"/6
#> XT:_CHIT_TENS_TOT="1.736070289829"/6
#> XT:_CHIT_THETA_TENS="1.736068136541"/6
#> XT:_SMU_CHIT_TENS_TOT="0.867029692037"/6
#> XT:__SS_CHIT_TENS_TOT="0.433012701892"/6
#> XT:____XR="1.736070289829"/6
#> XT:____XL="1.736070289829"/6
#> XT:__SMUL="0.867029692037"/6
#> XT:__SMUR="0.867029692037"/6
#> XT:___SSL="0.433012701892"/6
#> XT:___SSR="0.433012701892"/6
#> XT:_CHIT_TENS_TOT="1.736070289829"/6
#> XT:_CHIT_THETA_TENS="1.736068208317"/6
#> XT:_SMU_CHIT_TENS_TOT="0.867029692037"/6
#> XT:__SS_CHIT_TENS_TOT="0.433012701892"/6
#> XT:_T="972.370299834384"/6
#> XT:_T="2.127082886158"/6
#> XT:_CHIT_THETA="2.095158924504"/6
#> XT:_CHIT_THETA="11.313708498985"/6
#>>   5
#> XT:__CHIT_TENS_L="1.736070289829"/6
#> XT:__CHIT_TENS_LR="1.736070289829"/6
#> XT:__CHIT_TENS_EXCH="1.736070289829"/6
#> XT:__ZSTAT_EXCH="2"/6
#> XT:__ZSTAT_L="2"/6
#> XT:__ZSTAT_LR="2"/6
#> XT:__XL="1.736070289829"/6
#> XT:__XR="1.736070289829"/6
#> XT:__ZL="2"/6
#> XT:__ZR="2"/6
#> XT:_ZEX="2"/6
#> XT:_CHIT_THETA_TENS="0.0"/6
#> XT:__CHIT_TENS_L="1.736070289829"/6
#> XT:__CHIT_TENS_LR="1.736070289829"/6
#> XT:__CHIT_TENS_EXCH="1.736070289829"/6
#> XT:__ZSTAT_EXCH="2"/6
#> XT:__ZSTAT_L="2"/6
#> XT:__ZSTAT_LR="2"/6
#> XT:__XL="1.736070289829"/6
#> XT:__XR="1.736070289829"/6
#> XT:__ZL="2"/6
#> XT:__ZR="2"/6
#> XT:_ZEX="2"/6
#> XT:_CHIT_THETA_TENS="0.0"/6
#> XT:__CHIT_TENS_L="1.736070289829"/6
#> XT:__CHIT_TENS_LR="1.736070289829"/6
#> XT:__CHIT_TENS_EXCH="1.736070289829"/6
#> XT:__ZSTAT_EXCH="2"/6
#> XT:__ZSTAT_L="2"/6
#> XT:__ZSTAT_LR="2"/6
#> XT:__XL="1.736070289829"/6
#> XT:__XR="1.736070289829"/6
#> XT:__ZL="2"/6
#> XT:__ZR="2"/6
#> XT:_ZEX="2"/6
#> XT:_CHIT_THETA_TENS="0.0"/6
#> XT:__CHIT_TENS_L="1.736070289829"/6
#> XT:__CHIT_TENS_LR="1.736070289829"/6
#> XT:__CHIT_TENS_EXCH="1.736070289829"/6
#> XT:__ZSTAT_EXCH="2"/6
#> XT:__ZSTAT_L="2"/6
#> XT:__ZSTAT_LR="2"/6
#> XT:__XL="1.736070289829"/6
#> XT:__XR="1.736070289829"/6
#> XT:__ZL="2"/6
#> XT:__ZR="2"/6
#> XT:_ZEX="2"/6
#> XT:_CHIT_THETA_TENS="0.0"/6
#> XT:__CHIT_TENS_L="1.736070289829"/6
#> XT:__CHIT_TENS_LR="1.736070289829"/6
#> XT:__CHIT_TENS_EXCH="1.736070289829"/6
#> XT:__ZSTAT_EXCH="2"/6
#> XT:__ZSTAT_L="2"/6
#> XT:__ZSTAT_LR="2"/6
#> XT:__XL="1.736070289829"/6
#> XT:__XR="1.736070289829"/6
#> XT:__ZL="2"/6
#> XT:__ZR="2"/6
#> XT:_ZEX="2"/6
#> XT:_CHIT_THETA_TENS="0.0"/6
#> XT:__CHIT_TENS_L="1.736070289829"/6
#> XT:__CHIT_TENS_LR="1.736070289829"/6
#> XT:__CHIT_TENS_EXCH="1.736070289829"/6
#> XT:__ZSTAT_EXCH="2"/6
#> XT:__ZSTAT_L="2"/6
#> XT:__ZSTAT_LR="2"/6
#> XT:__XL="1.736070289829"/6
#> XT:__XR="1.736070289829"/6
#> XT:__ZL="2"/6
#> XT:__ZR="2"/6
#> XT:_ZEX="2"/6
#> XT:_CHIT_THETA_TENS="0.0"/6
#> XT:__CHIT_TENS_L="1.736070289829"/6
#> XT:__CHIT_TENS_LR="1.736070289829"/6
#> XT:__CHIT_TENS_EXCH="1.736070289829"/6
#> XT:__ZSTAT_EXCH="2"/6
#> XT:__ZSTAT_L="2"/6
#> XT:__ZSTAT_LR="2"/6
#> XT:__XL="1.736070289829"/6
#> XT:__XR="1.736070289829"/6
#> XT:__ZL="2"/6
#> XT:__ZR="2"/6
#> XT:_ZEX="2"/6
#> XT:_CHIT_THETA_TENS="0.0"/6
#> XT:__CHIT_TENS_L="1.736070289829"/6
#> XT:__CHIT_TENS_LR="1.736070289829"/6
#> XT:__CHIT_TENS_EXCH="1.736070289829"/6
#> XT:__ZSTAT_EXCH="2"/6
#> XT:__ZSTAT_L="2"/6
#> XT:__ZSTAT_LR="2"/6
#> XT:__XL="1.736070289829"/6
#> XT:__XR="1.736070289829"/6
#> XT:__ZL="2"/6
#> XT:__ZR="2"/6
#> XT:_ZEX="2"/6
#> XT:_CHIT_THETA_TENS="0.0"/6
#> XT:__CHIT_TENS_L="1.736070289829"/6
#> XT:__CHIT_TENS_LR="1.736070289829"/6
#> XT:__CHIT_TENS_EXCH="1.736070289829"/6
#> XT:__ZSTAT_EXCH="2"/6
#> XT:__ZSTAT_L="2"/6
#> XT:__ZSTAT_LR="2"/6
#> XT:__XL="1.736070289829"/6
#> XT:__XR="1.736070289829"/6
#> XT:__ZL="2"/6
#> XT:__ZR="2"/6
#> XT:_ZEX="2"/6
#> XT:_CHIT_THETA_TENS="0.0"/6
#> XT:__CHIT_TENS_L="1.736070289829"/6
#> XT:__CHIT_TENS_LR="1.736070289829"/6
#> XT:__CHIT_TENS_EXCH="1.736070289829"/6
#> XT:__ZSTAT_EXCH="2"/6
#> XT:__ZSTAT_L="2"/6
#> XT:__ZSTAT_LR="2"/6
#> XT:__XL="1.736070289829"/6
#> XT:__XR="1.736070289829"/6
#> XT:__ZL="2"/6
#> XT:__ZR="2"/6
#> XT:_ZEX="2"/6
#> XT:_CHIT_THETA_TENS="0.0"/6
#> XT:__CHIT_TENS_L="1.736070289829"/6
#> XT:__CHIT_TENS_LR="1.736070289829"/6
#> XT:__CHIT_TENS_EXCH="1.736070289829"/6
#> XT:__ZSTAT_EXCH="2"/6
#> XT:__ZSTAT_L="2"/6
#> XT:__ZSTAT_LR="2"/6
#> XT:__XL="1.736070289829"/6
#> XT:__XR="1.736070289829"/6
#> XT:__ZL="2"/6
#> XT:__ZR="2"/6
#> XT:_ZEX="2"/6
#> XT:_CHIT_THETA_TENS="0.0"/6
#> XT:__CHIT_TENS_L="1.736070289829"/6
#> XT:__CHIT_TENS_LR="1.736070289829"/6
#> XT:__CHIT_TENS_EXCH="1.736070289829"/6
#> XT:__ZSTAT_EXCH="2"/6
#> XT:__ZSTAT_L="2"/6
#> XT:__ZSTAT_LR="2"/6
#> XT:__XL="1.736070289829"/6
#> XT:__XR="1.736070289829"/6
#> XT:__ZL="2"/6
#> XT:__ZR="2"/6
#> XT:_ZEX="2"/6
#> XT:_CHIT_THETA_TENS="0.0"/6
#> XT:__CHIT_TENS_L="1.736070289829"/6
#> XT:__CHIT_TENS_LR="1.736070289829"/6
#> XT:__CHIT_TENS_EXCH="1.736070289829"/6
#> XT:__ZSTAT_EXCH="2"/6
#> XT:__ZSTAT_L="2"/6
#> XT:__ZSTAT_LR="2"/6
#> XT:__XL="1.736070289829"/6
#> XT:__XR="1.736070289829"/6
#> XT:__ZL="2"/6
#> XT:__ZR="2"/6
#> XT:_ZEX="2"/6
#> XT:_CHIT_THETA_TENS="0.0"/6
#> XT:__CHIT_TENS_L="1.736070289829"/6
#> XT:__CHIT_TENS_LR="1.736070289829"/6
#> XT:__CHIT_TENS_EXCH="1.736070289829"/6
#> XT:__ZSTAT_EXCH="2"/6
#> XT:__ZSTAT_L="2"/6
#> XT:__ZSTAT_LR="2"/6
#> XT:__XL="1.736070289829"/6
#> XT:__XR="1.736070289829"/6
#> XT:__ZL="2"/6
#> XT:__ZR="2"/6
#> XT:_ZEX="2"/6
#> XT:_CHIT_THETA_TENS="0.0"/6
#> XT:__CHIT_TENS_L="1.736070289829"/6
#> XT:__CHIT_TENS_LR="1.736070289829"/6
#> XT:__CHIT_TENS_EXCH="1.736070289829"/6
#> XT:__ZSTAT_EXCH="2"/6
#> XT:__ZSTAT_L="2"/6
#> XT:__ZSTAT_LR="2"/6
#> XT:__XL="1.736070289829"/6
#> XT:__XR="1.736070289829"/6
#> XT:__ZL="2"/6
#> XT:__ZR="2"/6
#> XT:_ZEX="2"/6
#> XT:_CHIT_THETA_TENS="0.0"/6
#> XT:__CHIT_TENS_L="1.736070289829"/6
#> XT:__CHIT_TENS_LR="1.736070289829"/6
#> XT:__CHIT_TENS_EXCH="1.736070289829"/6
#> XT:__ZSTAT_EXCH="2"/6
#> XT:__ZSTAT_L="2"/6
#> XT:__ZSTAT_LR="2"/6
#> XT:__XL="1.736070289829"/6
#> XT:__XR="1.736070289829"/6
#> XT:__ZL="2"/6
#> XT:__ZR="2"/6
#> XT:_ZEX="2"/6
#> XT:_CHIT_THETA_TENS="0.0"/6
#> XT:__CHIT_TENS_L="1.736070289829"/6
#> XT:__CHIT_TENS_LR="1.736070289829"/6
#> XT:__CHIT_TENS_EXCH="1.736070289829"/6
#> XT:__ZSTAT_EXCH="2"/6
#> XT:__ZSTAT_L="2"/6
#> XT:__ZSTAT_LR="2"/6
#> XT:__XL="1.736070289829"/6
#> XT:__XR="1.736070289829"/6
#> XT:__ZL="2"/6
#> XT:__ZR="2"/6
#> XT:_ZEX="2"/6
#> XT:_CHIT_THETA_TENS="0.0"/6
#> XT:__CHIT_TENS_L="1.736070289829"/6
#> XT:__CHIT_TENS_LR="1.736070289829"/6
#> XT:__CHIT_TENS_EXCH="1.736070289829"/6
#> XT:__ZSTAT_EXCH="2"/6
#> XT:__ZSTAT_L="2"/6
#> XT:__ZSTAT_LR="2"/6
#> XT:__XL="1.736070289829"/6
#> XT:__XR="1.736070289829"/6
#> XT:__ZL="2"/6
#> XT:__ZR="2"/6
#> XT:_ZEX="2"/6
#> XT:_CHIT_THETA_TENS="0.0"/6
#> XT:__CHIT_TENS_L="1.736070289829"/6
#> XT:__CHIT_TENS_LR="1.736070289829"/6
#> XT:__CHIT_TENS_EXCH="1.736070289829"/6
#> XT:__ZSTAT_EXCH="2"/6
#> XT:__ZSTAT_L="2"/6
#> XT:__ZSTAT_LR="2"/6
#> XT:__XL="1.736070289829"/6
#> XT:__XR="1.736070289829"/6
#> XT:__ZL="2"/6
#> XT:__ZR="2"/6
#> XT:_ZEX="2"/6
#> XT:_CHIT_THETA_TENS="0.0"/6
#> XT:__CHIT_TENS_L="1.736070289829"/6
#> XT:__CHIT_TENS_LR="1.736070289829"/6
#> XT:__CHIT_TENS_EXCH="1.736070289829"/6
#> XT:__ZSTAT_EXCH="2"/6
#> XT:__ZSTAT_L="2"/6
#> XT:__ZSTAT_LR="2"/6
#> XT:__XL="1.736070289829"/6
#> XT:__XR="1.736070289829"/6
#> XT:__ZL="2"/6
#> XT:__ZR="2"/6
#> XT:_ZEX="2"/6
#> XT:_CHIT_THETA_TENS="0.0"/6
#> XT:__CHIT_TENS_L="1.736070289829"/6
#> XT:__CHIT_TENS_LR="1.736070289829"/6
#> XT:__CHIT_TENS_EXCH="1.736070289829"/6
#> XT:__ZSTAT_EXCH="2"/6
#> XT:__ZSTAT_L="2"/6
#> XT:__ZSTAT_LR="2"/6
#> XT:__XL="1.736070289829"/6
#> XT:__XR="1.736070289829"/6
#> XT:__ZL="2"/6
#> XT:__ZR="2"/6
#> XT:_ZEX="2"/6
#> XT:_CHIT_THETA_TENS="0.0"/6
#> XT:__CHIT_TENS_L="1.736070289829"/6
#> XT:__CHIT_TENS_LR="1.736070289829"/6
#> XT:__CHIT_TENS_EXCH="1.736070289829"/6
#> XT:__ZSTAT_EXCH="2"/6
#> XT:__ZSTAT_L="2"/6
#> XT:__ZSTAT_LR="2"/6
#> XT:__XL="1.736070289829"/6
#> XT:__XR="1.736070289829"/6
#> XT:__ZL="2"/6
#> XT:__ZR="2"/6
#> XT:_ZEX="2"/6
#> XT:_CHIT_THETA_TENS="0.0"/6
#> XT:__CHIT_TENS_L="1.736070289829"/6
#> XT:__CHIT_TENS_LR="1.736070289829"/6
#> XT:__CHIT_TENS_EXCH="1.736070289829"/6
#> XT:__ZSTAT_EXCH="2"/6
#> XT:__ZSTAT_L="2"/6
#> XT:__ZSTAT_LR="2"/6
#> XT:__XL="1.736070289829"/6
#> XT:__XR="1.736070289829"/6
#> XT:__ZL="2"/6
#> XT:__ZR="2"/6
#> XT:_ZEX="2"/6
#> XT:_CHIT_THETA_TENS="0.0"/6
#> XT:__CHIT_TENS_L="1.736070289829"/6
#> XT:__CHIT_TENS_LR="1.736070289829"/6
#> XT:__CHIT_TENS_EXCH="1.736070289829"/6
#> XT:__ZSTAT_EXCH="2"/6
#> XT:__ZSTAT_L="2"/6
#> XT:__ZSTAT_LR="2"/6
#> XT:__XL="1.736070289829"/6
#> XT:__XR="1.736070289829"/6
#> XT:__ZL="2"/6
#> XT:__ZR="2"/6
#> XT:_ZEX="2"/6
#> XT:_CHIT_THETA_TENS="0.0"/6
#> XT:__CHIT_TENS_L="1.736070289829"/6
#> XT:__CHIT_TENS_LR="1.736070289829"/6
#> XT:__CHIT_TENS_EXCH="1.736070289829"/6
#> XT:__ZSTAT_EXCH="2"/6
#> XT:__ZSTAT_L="2"/6
#> XT:__ZSTAT_LR="2"/6
#> XT:__XL="1.736070289829"/6
#> XT:__XR="1.736070289829"/6
#> XT:__ZL="2"/6
#> XT:__ZR="2"/6
#> XT:_ZEX="2"/6
#> XT:_CHIT_THETA_TENS="0.0"/6
#> XT:__CHIT_TENS_L="1.736070289829"/6
#> XT:__CHIT_TENS_LR="1.736070289829"/6
#> XT:__CHIT_TENS_EXCH="1.736070289829"/6
#> XT:__ZSTAT_EXCH="2"/6
#> XT:__ZSTAT_L="2"/6
#> XT:__ZSTAT_LR="2"/6
#> XT:__XL="1.736070289829"/6
#> XT:__XR="1.736070289829"/6
#> XT:__ZL="2"/6
#> XT:__ZR="2"/6
#> XT:_ZEX="2"/6
#> XT:_CHIT_THETA_TENS="0.0"/6
#> XT:__CHIT_TENS_L="1.736070289829"/6
#> XT:__CHIT_TENS_LR="1.736070289829"/6
#> XT:__CHIT_TENS_EXCH="1.736070289829"/6
#> XT:__ZSTAT_EXCH="2"/6
#> XT:__ZSTAT_L="2"/6
#> XT:__ZSTAT_LR="2"/6
#> XT:__XL="1.736070289829"/6
#> XT:__XR="1.736070289829"/6
#> XT:__ZL="2"/6
#> XT:__ZR="2"/6
#> XT:_ZEX="2"/6
#> XT:_CHIT_THETA_TENS="0.0"/6
#> XT:__CHIT_TENS_L="1.736070289829"/6
#> XT:__CHIT_TENS_LR="1.736070289829"/6
#> XT:__CHIT_TENS_EXCH="1.736070289829"/6
#> XT:__ZSTAT_EXCH="2"/6
#> XT:__ZSTAT_L="2"/6
#> XT:__ZSTAT_LR="2"/6
#> XT:__XL="1.736070289829"/6
#> XT:__XR="1.736070289829"/6
#> XT:__ZL="2"/6
#> XT:__ZR="2"/6
#> XT:_ZEX="2"/6
#> XT:_CHIT_THETA_TENS="0.0"/6
#> XT:__CHIT_TENS_L="1.736070289829"/6
#> XT:__CHIT_TENS_LR="1.736070289829"/6
#> XT:__CHIT_TENS_EXCH="1.736070289829"/6
#> XT:__ZSTAT_EXCH="2"/6
#> XT:__ZSTAT_L="2"/6
#> XT:__ZSTAT_LR="2"/6
#> XT:__XL="1.736070289829"/6
#> XT:__XR="1.736070289829"/6
#> XT:__ZL="2"/6
#> XT:__ZR="2"/6
#> XT:_ZEX="2"/6
#> XT:_CHIT_THETA_TENS="0.0"/6
#> XT:__CHIT_TENS_L="1.736070289829"/6
#> XT:__CHIT_TENS_LR="1.736070289829"/6
#> XT:__CHIT_TENS_EXCH="1.736070289829"/6
#> XT:__ZSTAT_EXCH="2"/6
#> XT:__ZSTAT_L="2"/6
#> XT:__ZSTAT_LR="2"/6
#> XT:__XL="1.736070289829"/6
#> XT:__XR="1.736070289829"/6
#> XT:__ZL="2"/6
#> XT:__ZR="2"/6
#> XT:_ZEX="2"/6
#> XT:_CHIT_THETA_TENS="0.0"/6
#> XT:__CHIT_TENS_L="1.736070289829"/6
#> XT:__CHIT_TENS_LR="1.736070289829"/6
#> XT:__CHIT_TENS_EXCH="1.736070289829"/6
#> XT:__ZSTAT_EXCH="2"/6
#> XT:__ZSTAT_L="2"/6
#> XT:__ZSTAT_LR="2"/6
#> XT:__XL="1.736070289829"/6
#> XT:__XR="1.736070289829"/6
#> XT:__ZL="2"/6
#> XT:__ZR="2"/6
#> XT:_ZEX="2"/6
#> XT:_CHIT_THETA_TENS="0.0"/6
#> XT:__CHIT_TENS_L="1.736070289829"/6
#> XT:__CHIT_TENS_LR="1.736070289829"/6
#> XT:__CHIT_TENS_EXCH="1.736070289829"/6
#> XT:__ZSTAT_EXCH="2"/6
#> XT:__ZSTAT_L="2"/6
#> XT:__ZSTAT_LR="2"/6
#> XT:__XL="1.736070289829"/6
#> XT:__XR="1.736070289829"/6
#> XT:__ZL="2"/6
#> XT:__ZR="2"/6
#> XT:_ZEX="2"/6
#> XT:_CHIT_THETA_TENS="0.0"/6
#> XT:__CHIT_TENS_L="1.736070289829"/6
#> XT:__CHIT_TENS_LR="1.736070289829"/6
#> XT:__CHIT_TENS_EXCH="1.736070289829"/6
#> XT:__ZSTAT_EXCH="2"/6
#> XT:__ZSTAT_L="2"/6
#> XT:__ZSTAT_LR="2"/6
#> XT:__XL="1.736070289829"/6
#> XT:__XR="1.736070289829"/6
#> XT:__ZL="2"/6
#> XT:__ZR="2"/6
#> XT:_ZEX="2"/6
#> XT:_CHIT_THETA_TENS="0.0"/6
#> XT:__CHIT_TENS_L="1.736070289829"/6
#> XT:__CHIT_TENS_LR="1.736070289829"/6
#> XT:__CHIT_TENS_EXCH="1.736070289829"/6
#> XT:__ZSTAT_EXCH="2"/6
#> XT:__ZSTAT_L="2"/6
#> XT:__ZSTAT_LR="2"/6
#> XT:__XL="1.736070289829"/6
#> XT:__XR="1.736070289829"/6
#> XT:__ZL="2"/6
#> XT:__ZR="2"/6
#> XT:_ZEX="2"/6
#> XT:_CHIT_THETA_TENS="0.0"/6
#> XT:_T="977.712429142644"/6
#> XT:_T="2.192546853518"/6
#> XT:_CHIT_THETA="2.192546853518"/6
#> XT:_CHIT_THETA="11.661903789691"/6
#> MR_MAGN__DHX[0]="1"/10
#> MR_MAGN__DHX[1]="-1.000000000000"/10
#> MR_MAGN__DHX[2]="0.0"/10
#> MR_MAGN__DHX[3]="0.0"/10
#> MR_MAGN__DHX[4]="0.0"/10
#> MR_MAGN__DHY[0]="0.0"/10
#> MR_MAGN__DHY[1]="0.0"/10
#> MR_MAGN__DHY[2]="1"/10
#> MR_MAGN__DHY[3]="-1.000000000000"/10
#> MR_MAGN__DHY[4]="0.0"/10
#> MR_MAGN__DHZ[0]="0.0"/10
#> MR_MAGN__DHZ[1]="0.0"/10
#> MR_MAGN__DHZ[2]="0.0"/10
#> MR_MAGN__DHZ[3]="0.0"/10
#> MR_MAGN__DHZ[4]="1"/10
#> MR_MAGN__DWX[0]="0.003006796749"/10
#> MR_MAGN__DWX[1]="0.003006796749"/10
#> MR_MAGN__DWX[2]="0.003006796749"/10
#> MR_MAGN__DWX[3]="0.003006796749"/10
#> MR_MAGN__DWX[4]="0.006013593499"/10
#> MEX_MAGN____="0.000035462059"/8
#> MR_MAGN__WEX="0.000066101173"/8
#> ML_MAGN="0.0"/8
#> MR_MAGN="0.0"/8
#> MEX_MAGN____="0.346162269608"/8
#> MR_MAGN__WEX="0.661011732139"/8
#> ML_MAGN="0.0"/8
#> MR_MAGN="0.0"/8
#> MEX_MAGN____="0.647597665758"/8
#> MR_MAGN__WEX="1.322023464278"/8
#> ML_MAGN="0.0"/8
#> MR_MAGN="0.0"/8
#> MEX_MAGN____="0.882308156987"/8
#> MR_MAGN__WEX="1.983035196418"/8
#> ML_MAGN="0.0"/8
#> MR_MAGN="0.0"/8
#> MEX_MAGN____="1.052070633775"/8
#> MR_MAGN__WEX="2.644046928557"/8
#> ML_MAGN="0.0"/8
#> MR_MAGN="0.0"/8
#> MEX_MAGN____="1.169997995999"/8
#> MR_MAGN__WEX="3.305058660696"/8
#> ML_MAGN="0.0"/8
#> MR_MAGN="0.0"/8
#> MEX_MAGN____="1.250390501547"/8
#> MR_MAGN__WEX="3.966070392835"/8
#> ML_MAGN="0.0"/8
#> MR_MAGN="0.0"/8
#> MEX_MAGN____="1.304784233031"/8
#> MR_MAGN__WEX="4.627082124975"/8
#> ML_MAGN="0.0"/8
#> MR_MAGN="0.0"/8
#> MEX_MAGN____="1.341507183136"/8
#> MR_MAGN__WEX="5.288093857114"/8
#> ML_MAGN="0.0"/8
#> MR_MAGN="0.0"/8
#> MEX_MAGN____="1.366315191364"/8
#> MR_MAGN__WEX="5.949105589253"/8
#> ML_MAGN="0.0"/8
#> MR_MAGN="0.0"/8
#> MEX_MAGN____="1.383118453387"/8
#> MR_MAGN__WEX="6.610117321392"/8
#> ML_MAGN="0.0"/8
#> MR_MAGN="0.0"/8
#> MR_MAGN="0.0"/8
#> MR_MAGN="0.0"/8
#> MR_MAGN="0.0"/8
#> H_MAGN_______="19.621416870603"/6
#> MAGN_AVERAGED="3.555114674608"/6
#> ZTL_MAGN="8.790303418421"/8
#> MAGN_VECT_X___1="0.000282215021"/8
#> MAGN_VECT_Y___1="0.000282215021"/8
#> MAGN_VECT_Z___1="0.000270845952"/8
#> MAGN_VECT_X___2="2.754836971044"/8
#> MAGN_VECT_Y___2="2.754836971044"/8
#> MAGN_VECT_Z___2="2.643858005364"/8
#> MAGN_VECT_X___3="5.153727452767"/8
#> MAGN_VECT_Y___3="5.153727452767"/8
#> MAGN_VECT_Z___3="4.946108872025"/8
#> MAGN_VECT_X___4="7.021606177561"/8
#> MAGN_VECT_Y___4="7.021606177561"/8
#> MAGN_VECT_Z___4="6.738739859450"/8
#> MAGN_VECT_X___5="8.372614038354"/8
#> MAGN_VECT_Y___5="8.372614038354"/8
#> MAGN_VECT_Z___5="8.035322192854"/8
#> MAGN_VECT_X___6="9.311106433032"/8
#> MAGN_VECT_Y___6="9.311106433032"/8
#> MAGN_VECT_Z___6="8.936007299351"/8
#> MAGN_VECT_X___7="9.950888020808"/8
#> MAGN_VECT_Y___7="9.950888020808"/8
#> MAGN_VECT_Z___7="9.550015202651"/8
#> MAGN_VECT_X___8="10.383765534167"/8
#> MAGN_VECT_Y___8="10.383765534167"/8
#> MAGN_VECT_Z___8="9.965454189083"/8
#> MAGN_VECT_X___9="10.676015006502"/8
#> MAGN_VECT_Y___9="10.676015006502"/8
#> MAGN_VECT_Z___9="10.245930353415"/8
#> MAGN_VECT_X__10="10.873442699365"/8
#> MAGN_VECT_Y__10="10.873442699365"/8
#> MAGN_VECT_Z__10="10.435404645993"/8
#> MAGN_VECT_X__11="11.007166826800"/8
#> MAGN_VECT_Y__11="11.007166826800"/8
#> MAGN_VECT_Z__11="10.563741679562"/8
#>>   6
#> XT:__CHIT_TENS_L="1.736070289829"/6
#> XT:__CHIT_TENS_LR="1.736070289829"/6
#> XT:__CHIT_TENS_EXCH="1.736070289829"/6
#> XT:__ZSTAT_EXCH="2"/6
#> XT:__ZSTAT_L="2"/6
#> XT:__ZSTAT_LR="2"/6
#> XT:__XL="1.736070289829"/6
#> XT:__XR="1.736070289829"/6
#> XT:__ZL="2"/6
#> XT:__ZR="2"/6
#> XT:_ZEX="2"/6
#> XT:_CHIT_THETA_TENS="0.0"/6
#> XT:__CHIT_TENS_L="1.736070289829"/6
#> XT:__CHIT_TENS_LR="1.736070289829"/6
#> XT:__CHIT_TENS_EXCH="1.736070289829"/6
#> XT:__ZSTAT_EXCH="2"/6
#> XT:__ZSTAT_L="2"/6
#> XT:__ZSTAT_LR="2"/6
#> XT:__XL="1.736070289829"/6
#> XT:__XR="1.736070289829"/6
#> XT:__ZL="2"/6
#> XT:__ZR="2"/6
#> XT:_ZEX="2"/6
#> XT:_CHIT_THETA_TENS="0.0"/6
#> XT:__CHIT_TENS_L="1.736070289829"/6
#> XT:__CHIT_TENS_LR="1.736070289829"/6
#> XT:__CHIT_TENS_EXCH="1.736070289829"/6
#> XT:__ZSTAT_EXCH="2"/6
#> XT:__ZSTAT_L="2"/6
#> XT:__ZSTAT_LR="2"/6
#> XT:__XL="1.736070289829"/6
#> XT:__XR="1.736070289829"/6
#> XT:__ZL="2"/6
#> XT:__ZR="2"/6
#> XT:_ZEX="2"/6
#> XT:_CHIT_THETA_TENS="0.0"/6
#> XT:__CHIT_TENS_L="1.736070289829"/6
#> XT:__CHIT_TENS_LR="1.736070289829"/6
#> XT:__CHIT_TENS_EXCH="1.736070289829"/6
#> XT:__ZSTAT_EXCH="2"/6
#> XT:__ZSTAT_L="2"/6
#> XT:__ZSTAT_LR="2"/6
#> XT:__XL="1.736070289829"/6
#> XT:__XR="1.736070289829"/6
#> XT:__ZL="2"/6
#> XT:__ZR="2"/6
#> XT:_ZEX="2"/6
#> XT:_CHIT_THETA_TENS="0.0"/6
#> XT:__CHIT_TENS_L="1.736070289829"/6
#> XT:__CHIT_TENS_LR="1.736070289829"/6
#> XT:__CHIT_TENS_EXCH="1.736070289829"/6
#> XT:__ZSTAT_EXCH="2"/6
#> XT:__ZSTAT_L="2"/6
#> XT:__ZSTAT_LR="2"/6
#> XT:__XL="1.736070289829"/6
#> XT:__XR="1.736070289829"/6
#> XT:__ZL="2"/6
#> XT:__ZR="2"/6
#> XT:_ZEX="2"/6
#> XT:_CHIT_THETA_TENS="0.0"/6
#> XT:__CHIT_TENS_L="1.736070289829"/6
#> XT:__CHIT_TENS_LR="1.736070289829"/6
#> XT:__CHIT_TENS_EXCH="1.736070289829"/6
#> XT:__ZSTAT_EXCH="2"/6
#> XT:__ZSTAT_L="2"/6
#> XT:__ZSTAT_LR="2"/6
#> XT:__XL="1.736070289829"/6
#> XT:__XR="1.736070289829"/6
#> XT:__ZL="2"/6
#> XT:__ZR="2"/6
#> XT:_ZEX="2"/6
#> XT:_CHIT_THETA_TENS="0.0"/6
#> XT:__CHIT_TENS_L="1.736070289829"/6
#> XT:__CHIT_TENS_LR="1.736070289829"/6
#> XT:__CHIT_TENS_EXCH="1.736070289829"/6
#> XT:__ZSTAT_EXCH="2"/6
#> XT:__ZSTAT_L="2"/6
#> XT:__ZSTAT_LR="2"/6
#> XT:__XL="1.736070289829"/6
#> XT:__XR="1.736070289829"/6
#> XT:__ZL="2"/6
#> XT:__ZR="2"/6
#> XT:_ZEX="2"/6
#> XT:_CHIT_THETA_TENS="0.0"/6
#> XT:__CHIT_TENS_L="1.736070289829"/6
#> XT:__CHIT_TENS_LR="1.736070289829"/6
#> XT:__CHIT_TENS_EXCH="1.736070289829"/6
#> XT:__ZSTAT_EXCH="2"/6
#> XT:__ZSTAT_L="2"/6
#> XT:__ZSTAT_LR="2"/6
#> XT:__XL="1.736070289829"/6
#> XT:__XR="1.736070289829"/6
#> XT:__ZL="2"/6
#> XT:__ZR="2"/6
#> XT:_ZEX="2"/6
#> XT:_CHIT_THETA_TENS="0.0"/6
#> XT:__CHIT_TENS_L="1.736070289829"/6
#> XT:__CHIT_TENS_LR="1.736070289829"/6
#> XT:__CHIT_TENS_EXCH="1.736070289829"/6
#> XT:__ZSTAT_EXCH="2"/6
#> XT:__ZSTAT_L="2"/6
#> XT:__ZSTAT_LR="2"/6
#> XT:__XL="1.736070289829"/6
#> XT:__XR="1.736070289829"/6
#> XT:__ZL="2"/6
#> XT:__ZR="2"/6
#> XT:_ZEX="2"/6
#> XT:_CHIT_THETA_TENS="0.0"/6
#> XT:__CHIT_TENS_L="1.736070289829"/6
#> XT:__CHIT_TENS_LR="1.736070289829"/6
#> XT:__CHIT_TENS_EXCH="1.736070289829"/6
#> XT:__ZSTAT_EXCH="2"/6
#> XT:__ZSTAT_L="2"/6
#> XT:__ZSTAT_LR="2"/6
#> XT:__XL="1.736070289829"/6
#> XT:__XR="1.736070289829"/6
#> XT:__ZL="2"/6
#> XT:__ZR="2"/6
#> XT:_ZEX="2"/6
#> XT:_CHIT_THETA_TENS="0.0"/6
#> XT:__CHIT_TENS_L="1.736070289829"/6
#> XT:__CHIT_TENS_LR="1.736070289829"/6
#> XT:__CHIT_TENS_EXCH="1.736070289829"/6
#> XT:__ZSTAT_EXCH="2"/6
#> XT:__ZSTAT_L="2"/6
#> XT:__ZSTAT_LR="2"/6
#> XT:__XL="1.736070289829"/6
#> XT:__XR="1.736070289829"/6
#> XT:__ZL="2"/6
#> XT:__ZR="2"/6
#> XT:_ZEX="2"/6
#> XT:_CHIT_THETA_TENS="0.0"/6
#> XT:__CHIT_TENS_L="1.736070289829"/6
#> XT:__CHIT_TENS_LR="1.736070289829"/6
#> XT:__CHIT_TENS_EXCH="1.736070289829"/6
#> XT:__ZSTAT_EXCH="2"/6
#> XT:__ZSTAT_L="2"/6
#> XT:__ZSTAT_LR="2"/6
#> XT:__XL="1.736070289829"/6
#> XT:__XR="1.736070289829"/6
#> XT:__ZL="2"/6
#> XT:__ZR="2"/6
#> XT:_ZEX="2"/6
#> XT:_CHIT_THETA_TENS="0.0"/6
#> XT:__CHIT_TENS_L="1.736070289829"/6
#> XT:__CHIT_TENS_LR="1.736070289829"/6
#> XT:__CHIT_TENS_EXCH="1.736070289829"/6
#> XT:__ZSTAT_EXCH="2"/6
#> XT:__ZSTAT_L="2"/6
#> XT:__ZSTAT_LR="2"/6
#> XT:__XL="1.736070289829"/6
#> XT:__XR="1.736070289829"/6
#> XT:__ZL="2"/6
#> XT:__ZR="2"/6
#> XT:_ZEX="2"/6
#> XT:_CHIT_THETA_TENS="0.0"/6
#> XT:__CHIT_TENS_L="1.736070289829"/6
#> XT:__CHIT_TENS_LR="1.736070289829"/6
#> XT:__CHIT_TENS_EXCH="1.736070289829"/6
#> XT:__ZSTAT_EXCH="2"/6
#> XT:__ZSTAT_L="2"/6
#> XT:__ZSTAT_LR="2"/6
#> XT:__XL="1.736070289829"/6
#> XT:__XR="1.736070289829"/6
#> XT:__ZL="2"/6
#> XT:__ZR="2"/6
#> XT:_ZEX="2"/6
#> XT:_CHIT_THETA_TENS="0.0"/6
#> XT:__CHIT_TENS_L="1.736070289829"/6
#> XT:__CHIT_TENS_LR="1.736070289829"/6
#> XT:__CHIT_TENS_EXCH="1.736070289829"/6
#> XT:__ZSTAT_EXCH="2"/6
#> XT:__ZSTAT_L="2"/6
#> XT:__ZSTAT_LR="2"/6
#> XT:__XL="1.736070289829"/6
#> XT:__XR="1.736070289829"/6
#> XT:__ZL="2"/6
#> XT:__ZR="2"/6
#> XT:_ZEX="2"/6
#> XT:_CHIT_THETA_TENS="0.0"/6
#> XT:__CHIT_TENS_L="1.736070289829"/6
#> XT:__CHIT_TENS_LR="1.736070289829"/6
#> XT:__CHIT_TENS_EXCH="1.736070289829"/6
#> XT:__ZSTAT_EXCH="2"/6
#> XT:__ZSTAT_L="2"/6
#> XT:__ZSTAT_LR="2"/6
#> XT:__XL="1.736070289829"/6
#> XT:__XR="1.736070289829"/6
#> XT:__ZL="2"/6
#> XT:__ZR="2"/6
#> XT:_ZEX="2"/6
#> XT:_CHIT_THETA_TENS="0.0"/6
#> XT:__CHIT_TENS_L="1.736070289829"/6
#> XT:__CHIT_TENS_LR="1.736070289829"/6
#> XT:__CHIT_TENS_EXCH="1.736070289829"/6
#> XT:__ZSTAT_EXCH="2"/6
#> XT:__ZSTAT_L="2"/6
#> XT:__ZSTAT_LR="2"/6
#> XT:__XL="1.736070289829"/6
#> XT:__XR="1.736070289829"/6
#> XT:__ZL="2"/6
#> XT:__ZR="2"/6
#> XT:_ZEX="2"/6
#> XT:_CHIT_THETA_TENS="0.0"/6
#> XT:__CHIT_TENS_L="1.736070289829"/6
#> XT:__CHIT_TENS_LR="1.736070289829"/6
#> XT:__CHIT_TENS_EXCH="1.736070289829"/6
#> XT:__ZSTAT_EXCH="2"/6
#> XT:__ZSTAT_L="2"/6
#> XT:__ZSTAT_LR="2"/6
#> XT:__XL="1.736070289829"/6
#> XT:__XR="1.736070289829"/6
#> XT:__ZL="2"/6
#> XT:__ZR="2"/6
#> XT:_ZEX="2"/6
#> XT:_CHIT_THETA_TENS="0.0"/6
#> XT:__CHIT_TENS_L="1.736070289829"/6
#> XT:__CHIT_TENS_LR="1.736070289829"/6
#> XT:__CHIT_TENS_EXCH="1.736070289829"/6
#> XT:__ZSTAT_EXCH="2"/6
#> XT:__ZSTAT_L="2"/6
#> XT:__ZSTAT_LR="2"/6
#> XT:__XL="1.736070289829"/6
#> XT:__XR="1.736070289829"/6
#> XT:__ZL="2"/6
#> XT:__ZR="2"/6
#> XT:_ZEX="2"/6
#> XT:_CHIT_THETA_TENS="0.0"/6
#> XT:__CHIT_TENS_L="1.736070289829"/6
#> XT:__CHIT_TENS_LR="1.736070289829"/6
#> XT:__CHIT_TENS_EXCH="1.736070289829"/6
#> XT:__ZSTAT_EXCH="2"/6
#> XT:__ZSTAT_L="2"/6
#> XT:__ZSTAT_LR="2"/6
#> XT:__XL="1.736070289829"/6
#> XT:__XR="1.736070289829"/6
#> XT:__ZL="2"/6
#> XT:__ZR="2"/6
#> XT:_ZEX="2"/6
#> XT:_CHIT_THETA_TENS="0.0"/6
#> XT:__CHIT_TENS_L="1.736070289829"/6
#> XT:__CHIT_TENS_LR="1.736070289829"/6
#> XT:__CHIT_TENS_EXCH="1.736070289829"/6
#> XT:__ZSTAT_EXCH="2"/6
#> XT:__ZSTAT_L="2"/6
#> XT:__ZSTAT_LR="2"/6
#> XT:__XL="1.736070289829"/6
#> XT:__XR="1.736070289829"/6
#> XT:__ZL="2"/6
#> XT:__ZR="2"/6
#> XT:_ZEX="2"/6
#> XT:_CHIT_THETA_TENS="0.0"/6
#> XT:__CHIT_TENS_L="1.736070289829"/6
#> XT:__CHIT_TENS_LR="1.736070289829"/6
#> XT:__CHIT_TENS_EXCH="1.736070289829"/6
#> XT:__ZSTAT_EXCH="2"/6
#> XT:__ZSTAT_L="2"/6
#> XT:__ZSTAT_LR="2"/6
#> XT:__XL="1.736070289829"/6
#> XT:__XR="1.736070289829"/6
#> XT:__ZL="2"/6
#> XT:__ZR="2"/6
#> XT:_ZEX="2"/6
#> XT:_CHIT_THETA_TENS="0.0"/6
#> XT:__CHIT_TENS_L="1.736070289829"/6
#> XT:__CHIT_TENS_LR="1.736070289829"/6
#> XT:__CHIT_TENS_EXCH="1.736070289829"/6
#> XT:__ZSTAT_EXCH="2"/6
#> XT:__ZSTAT_L="2"/6
#> XT:__ZSTAT_LR="2"/6
#> XT:__XL="1.736070289829"/6
#> XT:__XR="1.736070289829"/6
#> XT:__ZL="2"/6
#> XT:__ZR="2"/6
#> XT:_ZEX="2"/6
#> XT:_CHIT_THETA_TENS="0.0"/6
#> XT:__CHIT_TENS_L="1.736070289829"/6
#> XT:__CHIT_TENS_LR="1.736070289829"/6
#> XT:__CHIT_TENS_EXCH="1.736070289829"/6
#> XT:__ZSTAT_EXCH="2"/6
#> XT:__ZSTAT_L="2"/6
#> XT:__ZSTAT_LR="2"/6
#> XT:__XL="1.736070289829"/6
#> XT:__XR="1.736070289829"/6
#> XT:__ZL="2"/6
#> XT:__ZR="2"/6
#> XT:_ZEX="2"/6
#> XT:_CHIT_THETA_TENS="0.0"/6
#> XT:__CHIT_TENS_L="1.736070289829"/6
#> XT:__CHIT_TENS_LR="1.736070289829"/6
#> XT:__CHIT_TENS_EXCH="1.736070289829"/6
#> XT:__ZSTAT_EXCH="2"/6
#> XT:__ZSTAT_L="2"/6
#> XT:__ZSTAT_LR="2"/6
#> XT:__XL="1.736070289829"/6
#> XT:__XR="1.736070289829"/6
#> XT:__ZL="2"/6
#> XT:__ZR="2"/6
#> XT:_ZEX="2"/6
#> XT:_CHIT_THETA_TENS="0.0"/6
#> XT:__CHIT_TENS_L="1.736070289829"/6
#> XT:__CHIT_TENS_LR="1.736070289829"/6
#> XT:__CHIT_TENS_EXCH="1.736070289829"/6
#> XT:__ZSTAT_EXCH="2"/6
#> XT:__ZSTAT_L="2"/6
#> XT:__ZSTAT_LR="2"/6
#> XT:__XL="1.736070289829"/6
#> XT:__XR="1.736070289829"/6
#> XT:__ZL="2"/6
#> XT:__ZR="2"/6
#> XT:_ZEX="2"/6
#> XT:_CHIT_THETA_TENS="0.0"/6
#> XT:__CHIT_TENS_L="1.736070289829"/6
#> XT:__CHIT_TENS_LR="1.736070289829"/6
#> XT:__CHIT_TENS_EXCH="1.736070289829"/6
#> XT:__ZSTAT_EXCH="2"/6
#> XT:__ZSTAT_L="2"/6
#> XT:__ZSTAT_LR="2"/6
#> XT:__XL="1.736070289829"/6
#> XT:__XR="1.736070289829"/6
#> XT:__ZL="2"/6
#> XT:__ZR="2"/6
#> XT:_ZEX="2"/6
#> XT:_CHIT_THETA_TENS="0.0"/6
#> XT:__CHIT_TENS_L="1.736070289829"/6
#> XT:__CHIT_TENS_LR="1.736070289829"/6
#> XT:__CHIT_TENS_EXCH="1.736070289829"/6
#> XT:__ZSTAT_EXCH="2"/6
#> XT:__ZSTAT_L="2"/6
#> XT:__ZSTAT_LR="2"/6
#> XT:__XL="1.736070289829"/6
#> XT:__XR="1.736070289829"/6
#> XT:__ZL="2"/6
#> XT:__ZR="2"/6
#> XT:_ZEX="2"/6
#> XT:_CHIT_THETA_TENS="0.0"/6
#> XT:__CHIT_TENS_L="1.736070289829"/6
#> XT:__CHIT_TENS_LR="1.736070289829"/6
#> XT:__CHIT_TENS_EXCH="1.736070289829"/6
#> XT:__ZSTAT_EXCH="2"/6
#> XT:__ZSTAT_L="2"/6
#> XT:__ZSTAT_LR="2"/6
#> XT:__XL="1.736070289829"/6
#> XT:__XR="1.736070289829"/6
#> XT:__ZL="2"/6
#> XT:__ZR="2"/6
#> XT:_ZEX="2"/6
#> XT:_CHIT_THETA_TENS="0.0"/6
#> XT:__CHIT_TENS_L="1.736070289829"/6
#> XT:__CHIT_TENS_LR="1.736070289829"/6
#> XT:__CHIT_TENS_EXCH="1.736070289829"/6
#> XT:__ZSTAT_EXCH="2"/6
#> XT:__ZSTAT_L="2"/6
#> XT:__ZSTAT_LR="2"/6
#> XT:__XL="1.736070289829"/6
#> XT:__XR="1.736070289829"/6
#> XT:__ZL="2"/6
#> XT:__ZR="2"/6
#> XT:_ZEX="2"/6
#> XT:_CHIT_THETA_TENS="0.0"/6
#> XT:__CHIT_TENS_L="1.736070289829"/6
#> XT:__CHIT_TENS_LR="1.736070289829"/6
#> XT:__CHIT_TENS_EXCH="1.736070289829"/6
#> XT:__ZSTAT_EXCH="2"/6
#> XT:__ZSTAT_L="2"/6
#> XT:__ZSTAT_LR="2"/6
#> XT:__XL="1.736070289829"/6
#> XT:__XR="1.736070289829"/6
#> XT:__ZL="2"/6
#> XT:__ZR="2"/6
#> XT:_ZEX="2"/6
#> XT:_CHIT_THETA_TENS="0.0"/6
#> XT:__CHIT_TENS_L="1.736070289829"/6
#> XT:__CHIT_TENS_LR="1.736070289829"/6
#> XT:__CHIT_TENS_EXCH="1.736070289829"/6
#> XT:__ZSTAT_EXCH="2"/6
#> XT:__ZSTAT_L="2"/6
#> XT:__ZSTAT_LR="2"/6
#> XT:__XL="1.736070289829"/6
#> XT:__XR="1.736070289829"/6
#> XT:__ZL="2"/6
#> XT:__ZR="2"/6
#> XT:_ZEX="2"/6
#> XT:_CHIT_THETA_TENS="0.0"/6
#> XT:__CHIT_TENS_L="1.736070289829"/6
#> XT:__CHIT_TENS_LR="1.736070289829"/6
#> XT:__CHIT_TENS_EXCH="1.736070289829"/6
#> XT:__ZSTAT_EXCH="2"/6
#> XT:__ZSTAT_L="2"/6
#> XT:__ZSTAT_LR="2"/6
#> XT:__XL="1.736070289829"/6
#> XT:__XR="1.736070289829"/6
#> XT:__ZL="2"/6
#> XT:__ZR="2"/6
#> XT:_ZEX="2"/6
#> XT:_CHIT_THETA_TENS="0.0"/6
#> XT:__CHIT_TENS_L="1.736070289829"/6
#> XT:__CHIT_TENS_LR="1.736070289829"/6
#> XT:__CHIT_TENS_EXCH="1.736070289829"/6
#> XT:__ZSTAT_EXCH="2"/6
#> XT:__ZSTAT_L="2"/6
#> XT:__ZSTAT_LR="2"/6
#> XT:__XL="1.736070289829"/6
#> XT:__XR="1.736070289829"/6
#> XT:__ZL="2"/6
#> XT:__ZR="2"/6
#> XT:_ZEX="2"/6
#> XT:_CHIT_THETA_TENS="0.0"/6
#> XT:_T="977.712429142644"/6
#> XT:_T="2.192546853518"/6
#> XT:_CHIT_THETA="2.192546853518"/6
#> XT:_CHIT_THETA="11.661903789691"/6
#> MR_MAGN__DHX[0]="1"/10
#> MR_MAGN__DHX[1]="-1.000000000000"/10
#> MR_MAGN__DHX[2]="0.0"/10
#> MR_MAGN__DHX[3]="0.0"/10
#> MR_MAGN__DHX[4]="0.0"/10
#> MR_MAGN__DHY[0]="0.0"/10
#> MR_MAGN__DHY[1]="0.0"/10
#> MR_MAGN__DHY[2]="1"/10
#> MR_MAGN__DHY[3]="-1.000000000000"/10
#> MR_MAGN__DHY[4]="0.0"/10
#> MR_MAGN__DHZ[0]="0.0"/10
#> MR_MAGN__DHZ[1]="0.0"/10
#> MR_MAGN__DHZ[2]="0.0"/10
#> MR_MAGN__DHZ[3]="0.0"/10
#> MR_MAGN__DHZ[4]="1"/10
#> MR_MAGN__DWX[0]="0.166666666667"/10
#> MR_MAGN__DWX[1]="0.166666666667"/10
#> MR_MAGN__DWX[2]="0.166666666667"/10
#> MR_MAGN__DWX[3]="0.166666666667"/10
#> MR_MAGN__DWX[4]="0.333333333333"/10
#> MEX_MAGN____="0.000035462059"/8
#> MR_MAGN__WEX="0.000066101173"/8
#> ML_MAGN="0.0"/8
#> MR_MAGN="0.0"/8
#> MEX_MAGN____="0.346162269608"/8
#> MR_MAGN__WEX="0.661011732139"/8
#> ML_MAGN="0.0"/8
#> MR_MAGN="0.0"/8
#> MEX_MAGN____="0.647597665758"/8
#> MR_MAGN__WEX="1.322023464278"/8
#> ML_MAGN="0.0"/8
#> MR_MAGN="0.0"/8
#> MEX_MAGN____="0.882308156987"/8
#> MR_MAGN__WEX="1.983035196418"/8
#> ML_MAGN="0.0"/8
#> MR_MAGN="0.0"/8
#> MEX_MAGN____="1.052070633775"/8
#> MR_MAGN__WEX="2.644046928557"/8
#> ML_MAGN="0.0"/8
#> MR_MAGN="0.0"/8
#> MEX_MAGN____="1.169997995999"/8
#> MR_MAGN__WEX="3.305058660696"/8
#> ML_MAGN="0.0"/8
#> MR_MAGN="0.0"/8
#> MEX_MAGN____="1.250390501547"/8
#> MR_MAGN__WEX="3.966070392835"/8
#> ML_MAGN="0.0"/8
#> MR_MAGN="0.0"/8
#> MEX_MAGN____="1.304784233031"/8
#> MR_MAGN__WEX="4.627082124975"/8
#> ML_MAGN="0.0"/8
#> MR_MAGN="0.0"/8
#> MEX_MAGN____="1.341507183136"/8
#> MR_MAGN__WEX="5.288093857114"/8
#> ML_MAGN="0.0"/8
#> MR_MAGN="0.0"/8
#> MEX_MAGN____="1.366315191364"/8
#> MR_MAGN__WEX="5.949105589253"/8
#> ML_MAGN="0.0"/8
#> MR_MAGN="0.0"/8
#> MEX_MAGN____="1.383118453387"/8
#> MR_MAGN__WEX="6.610117321392"/8
#> ML_MAGN="0.0"/8
#> MR_MAGN="0.0"/8
#> MR_MAGN="0.0"/8
#> MR_MAGN="0.0"/8
#> MR_MAGN="0.0"/8
#> H_MAGN_______="19.621416870603"/6
#> MAGN_AVERAGED="3.555114674608"/6
#> ZTL_MAGN="8.790303418421"/8
#> MAGN_VECT_X___1="0.000050150925"/8
#> MAGN_VECT_Y___1="0.000050150925"/8
#> MAGN_VECT_Z___1="0.000035462059"/8
#> MAGN_VECT_X___2="0.489547376462"/8
#> MAGN_VECT_Y___2="0.489547376462"/8
#> MAGN_VECT_Z___2="0.346162269608"/8
#> MAGN_VECT_X___3="0.915841401877"/8
#> MAGN_VECT_Y___3="0.915841401877"/8
#> MAGN_VECT_Z___3="0.647597665758"/8
#> MAGN_VECT_X___4="1.247772161803"/8
#> MAGN_VECT_Y___4="1.247772161803"/8
#> MAGN_VECT_Z___4="0.882308156987"/8
#> MAGN_VECT_X___5="1.487852558859"/8
#> MAGN_VECT_Y___5="1.487852558859"/8
#> MAGN_VECT_Z___5="1.052070633775"/8
#> MAGN_VECT_X___6="1.654627033891"/8
#> MAGN_VECT_Y___6="1.654627033891"/8
#> MAGN_VECT_Z___6="1.169997995999"/8
#> MAGN_VECT_X___7="1.768319205550"/8
#> MAGN_VECT_Y___7="1.768319205550"/8
#> MAGN_VECT_Z___7="1.250390501547"/8
#> MAGN_VECT_X___8="1.845243558323"/8
#> MAGN_VECT_Y___8="1.845243558323"/8
#> MAGN_VECT_Z___8="1.304784233031"/8
#> MAGN_VECT_X___9="1.897177652412"/8
#> MAGN_VECT_Y___9="1.897177652412"/8
#> MAGN_VECT_Z___9="1.341507183136"/8
#> MAGN_VECT_X__10="1.932261474104"/8
#> MAGN_VECT_Y__10="1.932261474104"/8
#> MAGN_VECT_Z__10="1.366315191364"/8
#> MAGN_VECT_X__11="1.956024875149"/8
#> MAGN_VECT_Y__11="1.956024875149"/8
#> MAGN_VECT_Z__11="1.383118453387"/8
#>>   7
#> XT:__CHIT_TENS_L="1.736070289829"/6
#> XT:__CHIT_TENS_LR="1.736070289829"/6
#> XT:__CHIT_TENS_EXCH="1.736070289829"/6
#> XT:__ZSTAT_EXCH="2"/6
#> XT:__ZSTAT_L="2"/6
#> XT:__ZSTAT_LR="2"/6
#> XT:__XL="1.736070289829"/6
#> XT:__XR="1.736070289829"/6
#> XT:__ZL="2"/6
#> XT:__ZR="2"/6
#> XT:_ZEX="2"/6
#> XT:_CHIT_THETA_TENS="0.0"/6
#> XT:__CHIT_TENS_L="1.736070289829"/6
#> XT:__CHIT_TENS_LR="1.736070289829"/6
#> XT:__CHIT_TENS_EXCH="1.736070289829"/6
#> XT:__ZSTAT_EXCH="2"/6
#> XT:__ZSTAT_L="2"/6
#> XT:__ZSTAT_LR="2"/6
#> XT:__XL="1.736070289829"/6
#> XT:__XR="1.736070289829"/6
#> XT:__ZL="2"/6
#> XT:__ZR="2"/6
#> XT:_ZEX="2"/6
#> XT:_CHIT_THETA_TENS="0.0"/6
#> XT:__CHIT_TENS_L="1.736070289829"/6
#> XT:__CHIT_TENS_LR="1.736070289829"/6
#> XT:__CHIT_TENS_EXCH="1.736070289829"/6
#> XT:__ZSTAT_EXCH="2"/6
#> XT:__ZSTAT_L="2"/6
#> XT:__ZSTAT_LR="2"/6
#> XT:__XL="1.736070289829"/6
#> XT:__XR="1.736070289829"/6
#> XT:__ZL="2"/6
#> XT:__ZR="2"/6
#> XT:_ZEX="2"/6
#> XT:_CHIT_THETA_TENS="0.0"/6
[...]
#> XT:__SMUR="0.867029692037"/6
#> XT:___SSL="0.433012701892"/6
#> XT:___SSR="0.433012701892"/6
#> XT:_CHIT_TENS_TOT="1.736070289829"/6
#> XT:_CHIT_THETA_TENS="1.736065486347"/6
#> XT:_SMU_CHIT_TENS_TOT="0.867029692037"/6
#> XT:__SS_CHIT_TENS_TOT="0.433012701892"/6
#> XT:____XR="1.736070289829"/6
#> XT:____XL="1.736070289829"/6
#> XT:__SMUL="0.867029692037"/6
#> XT:__SMUR="0.867029692037"/6
#> XT:___SSL="0.433012701892"/6
#> XT:___SSR="0.433012701892"/6
#> XT:_CHIT_TENS_TOT="1.736070289829"/6
#> XT:_CHIT_THETA_TENS="1.736065664253"/6
#> XT:_SMU_CHIT_TENS_TOT="0.867029692037"/6
#> XT:__SS_CHIT_TENS_TOT="0.433012701892"/6
#> XT:____XR="1.736070289829"/6
#> XT:____XL="1.736070289829"/6
#> XT:__SMUL="0.867029692037"/6
#> XT:__SMUR="0.867029692037"/6
#> XT:___SSL="0.433012701892"/6
#> XT:___SSR="0.433012701892"/6
#> XT:_CHIT_TENS_TOT="1.736070289829"/6
#> XT:_CHIT_THETA_TENS="1.736065829452"/6
#> XT:_SMU_CHIT_TENS_TOT="0.867029692037"/6
#> XT:__SS_CHIT_TENS_TOT="0.433012701892"/6
#> XT:____XR="1.736070289829"/6
#> XT:____XL="1.736070289829"/6
#> XT:__SMUL="0.867029692037"/6
#> XT:__SMUR="0.867029692037"/6
#> XT:___SSL="0.433012701892"/6
#> XT:___SSR="0.433012701892"/6
#> XT:_CHIT_TENS_TOT="1.736070289829"/6
#> XT:_CHIT_THETA_TENS="1.736065983257"/6
#> XT:_SMU_CHIT_TENS_TOT="0.867029692037"/6
#> XT:__SS_CHIT_TENS_TOT="0.433012701892"/6
#> XT:____XR="1.736070289829"/6
#> XT:____XL="1.736070289829"/6
#> XT:__SMUL="0.867029692037"/6
#> XT:__SMUR="0.867029692037"/6
#> XT:___SSL="0.433012701892"/6
#> XT:___SSR="0.433012701892"/6
#> XT:_CHIT_TENS_TOT="1.736070289829"/6
#> XT:_CHIT_THETA_TENS="1.736066126810"/6
#> XT:_SMU_CHIT_TENS_TOT="0.867029692037"/6
#> XT:__SS_CHIT_TENS_TOT="0.433012701892"/6
#> XT:_T="977.712940540325"/6
#> XT:_T="2.224556529966"/6
#> XT:_CHIT_THETA="2.192928025360"/6
#> XT:_CHIT_THETA="11.832159566199"/6
#> MR_MAGN__DHX[0]="0.0"/10
#> MR_MAGN__DHX[1]="0.0"/10
#> MR_MAGN__DHX[2]="-1.000000000000"/10
#> MR_MAGN__DHX[3]="1"/10
#> MR_MAGN__DHX[4]="0.0"/10
#> MR_MAGN__DHY[0]="0.0"/10
#> MR_MAGN__DHY[1]="-1.000000000000"/10
#> MR_MAGN__DHY[2]="0.0"/10
#> MR_MAGN__DHY[3]="0.0"/10
#> MR_MAGN__DHY[4]="0.0"/10
#> MR_MAGN__DHZ[0]="-1.000000000000"/10
#> MR_MAGN__DHZ[1]="0.0"/10
#> MR_MAGN__DHZ[2]="0.0"/10
#> MR_MAGN__DHZ[3]="0.0"/10
#> MR_MAGN__DHZ[4]="-1.000000000000"/10
#> MR_MAGN__DWX[0]="0.0"/10
#> MR_MAGN__DWX[1]="0.0"/10
#> MR_MAGN__DWX[2]="0.0"/10
#> MR_MAGN__DWX[3]="0.0"/10
#> MR_MAGN__DWX[4]="0.0"/10
#> MEX_MAGN____="0.000076143068"/8
#> MR_MAGN__WEX="0.000066101639"/8
#> ML_MAGN="0.0"/8
#> MR_MAGN="0.0"/8
#> MEX_MAGN____="0.682008538958"/8
#> MR_MAGN__WEX="0.661016394106"/8
#> ML_MAGN="0.0"/8
#> MR_MAGN="0.0"/8
#> MEX_MAGN____="1.087879814706"/8
#> MR_MAGN__WEX="1.322032787808"/8
#> ML_MAGN="0.0"/8
#> MR_MAGN="0.0"/8
#> MEX_MAGN____="1.308683694848"/8
#> MR_MAGN__WEX="1.983049180699"/8
#> ML_MAGN="0.0"/8
#> MR_MAGN="0.0"/8
#> MEX_MAGN____="1.446073348899"/8
#> MR_MAGN__WEX="2.644065572374"/8
#> ML_MAGN="0.0"/8
#> MR_MAGN="0.0"/8
#> MEX_MAGN____="1.538381413319"/8
#> MR_MAGN__WEX="3.305081962430"/8
#> ML_MAGN="0.0"/8
#> MR_MAGN="0.0"/8
#> MEX_MAGN____="1.601467036008"/8
#> MR_MAGN__WEX="3.966098350462"/8
#> ML_MAGN="0.0"/8
#> MR_MAGN="0.0"/8
#> MEX_MAGN____="1.644556845648"/8
#> MR_MAGN__WEX="4.627114736068"/8
#> ML_MAGN="0.0"/8
#> MR_MAGN="0.0"/8
#> MEX_MAGN____="1.673904494782"/8
#> MR_MAGN__WEX="5.288131118844"/8
#> ML_MAGN="0.0"/8
#> MR_MAGN="0.0"/8
#> MEX_MAGN____="1.693862775619"/8
#> MR_MAGN__WEX="5.949147498390"/8
#> ML_MAGN="0.0"/8
#> MR_MAGN="0.0"/8
#> MEX_MAGN____="1.707445429587"/8
#> MR_MAGN__WEX="6.610163874306"/8
#> ML_MAGN="0.0"/8
#> MR_MAGN="0.0"/8
#> MR_MAGN="0.0"/8
#> MR_MAGN="0.0"/8
#> MR_MAGN="0.0"/8
#> H_MAGN_______="19.621416870603"/6
#> MAGN_AVERAGED="4.655322688025"/6
#> ZTL_MAGN="9.594229713060"/8
#> MAGN_VECT_X___1="0.000152191002"/8
#> MAGN_VECT_Y___1="0.000152238577"/8
#> MAGN_VECT_Z___1="0.000131828743"/8
#> MAGN_VECT_X___2="1.363446881412"/8
#> MAGN_VECT_Y___2="1.363732009465"/8
#> MAGN_VECT_Z___2="1.180944260509"/8
#> MAGN_VECT_X___3="2.175355842552"/8
#> MAGN_VECT_Y___3="2.175557745350"/8
#> MAGN_VECT_Z___3="1.884029992359"/8
#> MAGN_VECT_X___4="2.617114150831"/8
#> MAGN_VECT_Y___4="2.617240773326"/8
#> MAGN_VECT_Z___4="2.266560445345"/8
#> MAGN_VECT_X___5="2.891966265851"/8
#> MAGN_VECT_Y___5="2.892056483232"/8
#> MAGN_VECT_Z___5="2.504568340414"/8
#> MAGN_VECT_X___6="3.076630562399"/8
#> MAGN_VECT_Y___6="3.076696695230"/8
#> MAGN_VECT_Z___6="2.664478407042"/8
#> MAGN_VECT_X___7="3.202838538546"/8
#> MAGN_VECT_Y___7="3.202886305637"/8
#> MAGN_VECT_Z___7="2.773767117012"/8
#> MAGN_VECT_X___8="3.289045953950"/8
#> MAGN_VECT_Y___8="3.289079822798"/8
#> MAGN_VECT_Z___8="2.848416904557"/8
#> MAGN_VECT_X___9="3.347761656603"/8
#> MAGN_VECT_Y___9="3.347785323167"/8
#> MAGN_VECT_Z___9="2.899260304347"/8
#> MAGN_VECT_X__10="3.387692819888"/8
#> MAGN_VECT_Y__10="3.387709185602"/8
#> MAGN_VECT_Z__10="2.933837490998"/8
#> MAGN_VECT_X__11="3.414868383393"/8
#> MAGN_VECT_Y__11="3.414879621301"/8
#> MAGN_VECT_Z__11="2.957369258812"/8
#>>  12
#> XT:____XR="1.736070289829"/6
#> XT:____XL="1.736070289829"/6
#> XT:__SMUL="0.867029692037"/6
#> XT:__SMUR="0.867029692037"/6
#> XT:___SSL="0.433012701892"/6
#> XT:___SSR="0.433012701892"/6
#> XT:_CHIT_TENS_TOT="1.736070289829"/6
#> XT:_CHIT_THETA_TENS="1.735446059913"/6
#> XT:_SMU_CHIT_TENS_TOT="0.867029692037"/6
#> XT:__SS_CHIT_TENS_TOT="0.433012701892"/6
#> XT:____XR="1.736070289829"/6
#> XT:____XL="1.736070289829"/6
#> XT:__SMUL="0.867029692037"/6
#> XT:__SMUR="0.867029692037"/6
#> XT:___SSL="0.433012701892"/6
#> XT:___SSR="0.433012701892"/6
#> XT:_CHIT_TENS_TOT="1.736070289829"/6
#> XT:_CHIT_THETA_TENS="0.211873905919"/6
#> XT:_SMU_CHIT_TENS_TOT="0.867029692037"/6
#> XT:__SS_CHIT_TENS_TOT="0.433012701892"/6
#> XT:____XR="1.736070289829"/6
#> XT:____XL="1.736070289829"/6
#> XT:__SMUL="0.867029692037"/6
#> XT:__SMUR="0.867029692037"/6
#> XT:___SSL="0.433012701892"/6
#> XT:___SSR="0.433012701892"/6
#> XT:_CHIT_TENS_TOT="1.736070289829"/6
#> XT:_CHIT_THETA_TENS="1.734900226861"/6
#> XT:_SMU_CHIT_TENS_TOT="0.867029692037"/6
#> XT:__SS_CHIT_TENS_TOT="0.433012701892"/6
#> XT:____XR="1.736070289829"/6
#> XT:____XL="1.736070289829"/6
#> XT:__SMUL="0.867029692037"/6
#> XT:__SMUR="0.867029692037"/6
#> XT:___SSL="0.433012701892"/6
#> XT:___SSR="0.433012701892"/6
#> XT:_CHIT_TENS_TOT="1.736070289829"/6
#> XT:_CHIT_THETA_TENS="1.735485061131"/6
#> XT:_SMU_CHIT_TENS_TOT="0.867029692037"/6
#> XT:__SS_CHIT_TENS_TOT="0.433012701892"/6
#> XT:____XR="1.736070289829"/6
#> XT:____XL="1.736070289829"/6
#> XT:__SMUL="0.867029692037"/6
#> XT:__SMUR="0.867029692037"/6
#> XT:___SSL="0.433012701892"/6
#> XT:___SSR="0.433012701892"/6
#> XT:_CHIT_TENS_TOT="1.736070289829"/6
#> XT:_CHIT_THETA_TENS="1.735680093519"/6
#> XT:_SMU_CHIT_TENS_TOT="0.867029692037"/6
#> XT:__SS_CHIT_TENS_TOT="0.433012701892"/6
#> XT:____XR="1.736070289829"/6
#> XT:____XL="1.736070289829"/6
#> XT:__SMUL="0.867029692037"/6
#> XT:__SMUR="0.867029692037"/6
#> XT:___SSL="0.433012701892"/6
#> XT:___SSR="0.433012701892"/6
#> XT:_CHIT_TENS_TOT="1.736070289829"/6
#> XT:_CHIT_THETA_TENS="1.735777626152"/6
#> XT:_SMU_CHIT_TENS_TOT="0.867029692037"/6
#> XT:__SS_CHIT_TENS_TOT="0.433012701892"/6
#> XT:____XR="1.736070289829"/6
#> XT:____XL="1.736070289829"/6
#> XT:__SMUL="0.867029692037"/6
#> XT:__SMUR="0.867029692037"/6
#> XT:___SSL="0.433012701892"/6
#> XT:___SSR="0.433012701892"/6
#> XT:_CHIT_TENS_TOT="1.736070289829"/6
#> XT:_CHIT_THETA_TENS="1.735836150993"/6
#> XT:_SMU_CHIT_TENS_TOT="0.867029692037"/6
#> XT:__SS_CHIT_TENS_TOT="0.433012701892"/6
#> XT:____XR="1.736070289829"/6
#> XT:____XL="1.736070289829"/6
#> XT:__SMUL="0.867029692037"/6
#> XT:__SMUR="0.867029692037"/6
#> XT:___SSL="0.433012701892"/6
#> XT:___SSR="0.433012701892"/6
#> XT:_CHIT_TENS_TOT="1.736070289829"/6
#> XT:_CHIT_THETA_TENS="1.735875169747"/6
#> XT:_SMU_CHIT_TENS_TOT="0.867029692037"/6
#> XT:__SS_CHIT_TENS_TOT="0.433012701892"/6
#> XT:____XR="1.736070289829"/6
#> XT:____XL="1.736070289829"/6
#> XT:__SMUL="0.867029692037"/6
#> XT:__SMUR="0.867029692037"/6
#> XT:___SSL="0.433012701892"/6
#> XT:___SSR="0.433012701892"/6
#> XT:_CHIT_TENS_TOT="1.736070289829"/6
#> XT:_CHIT_THETA_TENS="1.735903041359"/6
#> XT:_SMU_CHIT_TENS_TOT="0.867029692037"/6
#> XT:__SS_CHIT_TENS_TOT="0.433012701892"/6
#> XT:____XR="1.736070289829"/6
#> XT:____XL="1.736070289829"/6
#> XT:__SMUL="0.867029692037"/6
#> XT:__SMUR="0.867029692037"/6
#> XT:___SSL="0.433012701892"/6
#> XT:___SSR="0.433012701892"/6
#> XT:_CHIT_TENS_TOT="1.736070289829"/6
#> XT:_CHIT_THETA_TENS="1.735923945655"/6
#> XT:_SMU_CHIT_TENS_TOT="0.867029692037"/6
#> XT:__SS_CHIT_TENS_TOT="0.433012701892"/6
#> XT:____XR="1.736070289829"/6
#> XT:____XL="1.736070289829"/6
#> XT:__SMUL="0.867029692037"/6
#> XT:__SMUR="0.867029692037"/6
#> XT:___SSL="0.433012701892"/6
#> XT:___SSR="0.433012701892"/6
#> XT:_CHIT_TENS_TOT="1.736070289829"/6
#> XT:_CHIT_THETA_TENS="1.735940204901"/6
#> XT:_SMU_CHIT_TENS_TOT="0.867029692037"/6
#> XT:__SS_CHIT_TENS_TOT="0.433012701892"/6
#> XT:____XR="1.736070289829"/6
#> XT:____XL="1.736070289829"/6
#> XT:__SMUL="0.867029692037"/6
#> XT:__SMUR="0.867029692037"/6
#> XT:___SSL="0.433012701892"/6
#> XT:___SSR="0.433012701892"/6
#> XT:_CHIT_TENS_TOT="1.736070289829"/6
#> XT:_CHIT_THETA_TENS="1.735953212516"/6
#> XT:_SMU_CHIT_TENS_TOT="0.867029692037"/6
#> XT:__SS_CHIT_TENS_TOT="0.433012701892"/6
#> XT:____XR="1.736070289829"/6
#> XT:____XL="1.736070289829"/6
#> XT:__SMUL="0.867029692037"/6
#> XT:__SMUR="0.867029692037"/6
#> XT:___SSL="0.433012701892"/6
#> XT:___SSR="0.433012701892"/6
#> XT:_CHIT_TENS_TOT="1.736070289829"/6
#> XT:_CHIT_THETA_TENS="1.735963855256"/6
#> XT:_SMU_CHIT_TENS_TOT="0.867029692037"/6
#> XT:__SS_CHIT_TENS_TOT="0.433012701892"/6
#> XT:____XR="1.736070289829"/6
#> XT:____XL="1.736070289829"/6
#> XT:__SMUL="0.867029692037"/6
#> XT:__SMUR="0.867029692037"/6
#> XT:___SSL="0.433012701892"/6
#> XT:___SSR="0.433012701892"/6
#> XT:_CHIT_TENS_TOT="1.736070289829"/6
#> XT:_CHIT_THETA_TENS="1.735972724305"/6
#> XT:_SMU_CHIT_TENS_TOT="0.867029692037"/6
#> XT:__SS_CHIT_TENS_TOT="0.433012701892"/6
#> XT:____XR="1.736070289829"/6
#> XT:____XL="1.736070289829"/6
#> XT:__SMUL="0.867029692037"/6
#> XT:__SMUR="0.867029692037"/6
#> XT:___SSL="0.433012701892"/6
#> XT:___SSR="0.433012701892"/6
#> XT:_CHIT_TENS_TOT="1.736070289829"/6
#> XT:_CHIT_THETA_TENS="1.735980228956"/6
#> XT:_SMU_CHIT_TENS_TOT="0.867029692037"/6
#> XT:__SS_CHIT_TENS_TOT="0.433012701892"/6
#> XT:____XR="1.736070289829"/6
#> XT:____XL="1.736070289829"/6
#> XT:__SMUL="0.867029692037"/6
#> XT:__SMUR="0.867029692037"/6
#> XT:___SSL="0.433012701892"/6
#> XT:___SSR="0.433012701892"/6
#> XT:_CHIT_TENS_TOT="1.736070289829"/6
#> XT:_CHIT_THETA_TENS="1.735986661566"/6
#> XT:_SMU_CHIT_TENS_TOT="0.867029692037"/6
#> XT:__SS_CHIT_TENS_TOT="0.433012701892"/6
#> XT:____XR="1.736070289829"/6
#> XT:____XL="1.736070289829"/6
#> XT:__SMUL="0.867029692037"/6
#> XT:__SMUR="0.867029692037"/6
#> XT:___SSL="0.433012701892"/6
#> XT:___SSR="0.433012701892"/6
#> XT:_CHIT_TENS_TOT="1.736070289829"/6
#> XT:_CHIT_THETA_TENS="1.735992236533"/6
#> XT:_SMU_CHIT_TENS_TOT="0.867029692037"/6
#> XT:__SS_CHIT_TENS_TOT="0.433012701892"/6
#> XT:____XR="1.736070289829"/6
#> XT:____XL="1.736070289829"/6
#> XT:__SMUL="0.867029692037"/6
#> XT:__SMUR="0.867029692037"/6
#> XT:___SSL="0.433012701892"/6
#> XT:___SSR="0.433012701892"/6
#> XT:_CHIT_TENS_TOT="1.736070289829"/6
#> XT:_CHIT_THETA_TENS="1.735997114658"/6
#> XT:_SMU_CHIT_TENS_TOT="0.867029692037"/6
#> XT:__SS_CHIT_TENS_TOT="0.433012701892"/6
#> XT:____XR="1.736070289829"/6
#> XT:____XL="1.736070289829"/6
#> XT:__SMUL="0.867029692037"/6
#> XT:__SMUR="0.867029692037"/6
#> XT:___SSL="0.433012701892"/6
#> XT:___SSR="0.433012701892"/6
#> XT:_CHIT_TENS_TOT="1.736070289829"/6
#> XT:_CHIT_THETA_TENS="1.736001418909"/6
#> XT:_SMU_CHIT_TENS_TOT="0.867029692037"/6
#> XT:__SS_CHIT_TENS_TOT="0.433012701892"/6
#> XT:____XR="1.736070289829"/6
#> XT:____XL="1.736070289829"/6
#> XT:__SMUL="0.867029692037"/6
#> XT:__SMUR="0.867029692037"/6
#> XT:___SSL="0.433012701892"/6
#> XT:___SSR="0.433012701892"/6
#> XT:_CHIT_TENS_TOT="1.736070289829"/6
#> XT:_CHIT_THETA_TENS="1.736005244928"/6
#> XT:_SMU_CHIT_TENS_TOT="0.867029692037"/6
#> XT:__SS_CHIT_TENS_TOT="0.433012701892"/6
#> XT:____XR="1.736070289829"/6
#> XT:____XL="1.736070289829"/6
#> XT:__SMUL="0.867029692037"/6
#> XT:__SMUR="0.867029692037"/6
#> XT:___SSL="0.433012701892"/6
#> XT:___SSR="0.433012701892"/6
#> XT:_CHIT_TENS_TOT="1.736070289829"/6
#> XT:_CHIT_THETA_TENS="1.736008668222"/6
#> XT:_SMU_CHIT_TENS_TOT="0.867029692037"/6
#> XT:__SS_CHIT_TENS_TOT="0.433012701892"/6
#> XT:____XR="1.736070289829"/6
#> XT:____XL="1.736070289829"/6
#> XT:__SMUL="0.867029692037"/6
#> XT:__SMUR="0.867029692037"/6
#> XT:___SSL="0.433012701892"/6
#> XT:___SSR="0.433012701892"/6
#> XT:_CHIT_TENS_TOT="1.736070289829"/6
#> XT:_CHIT_THETA_TENS="1.736011749199"/6
#> XT:_SMU_CHIT_TENS_TOT="0.867029692037"/6
#> XT:__SS_CHIT_TENS_TOT="0.433012701892"/6
#> XT:____XR="1.736070289829"/6
#> XT:____XL="1.736070289829"/6
#> XT:__SMUL="0.867029692037"/6
#> XT:__SMUR="0.867029692037"/6
#> XT:___SSL="0.433012701892"/6
#> XT:___SSR="0.433012701892"/6
#> XT:_CHIT_TENS_TOT="1.736070289829"/6
#> XT:_CHIT_THETA_TENS="1.736014536758"/6
#> XT:_SMU_CHIT_TENS_TOT="0.867029692037"/6
#> XT:__SS_CHIT_TENS_TOT="0.433012701892"/6
#> XT:____XR="1.736070289829"/6
#> XT:____XL="1.736070289829"/6
#> XT:__SMUL="0.867029692037"/6
#> XT:__SMUR="0.867029692037"/6
#> XT:___SSL="0.433012701892"/6
#> XT:___SSR="0.433012701892"/6
#> XT:_CHIT_TENS_TOT="1.736070289829"/6
#> XT:_CHIT_THETA_TENS="1.736017070911"/6
#> XT:_SMU_CHIT_TENS_TOT="0.867029692037"/6
#> XT:__SS_CHIT_TENS_TOT="0.433012701892"/6
#> XT:____XR="1.736070289829"/6
#> XT:____XL="1.736070289829"/6
#> XT:__SMUL="0.867029692037"/6
#> XT:__SMUR="0.867029692037"/6
#> XT:___SSL="0.433012701892"/6
#> XT:___SSR="0.433012701892"/6
#> XT:_CHIT_TENS_TOT="1.736070289829"/6
#> XT:_CHIT_THETA_TENS="1.736019384709"/6
#> XT:_SMU_CHIT_TENS_TOT="0.867029692037"/6
#> XT:__SS_CHIT_TENS_TOT="0.433012701892"/6
#> XT:____XR="1.736070289829"/6
#> XT:____XL="1.736070289829"/6
#> XT:__SMUL="0.867029692037"/6
#> XT:__SMUR="0.867029692037"/6
#> XT:___SSL="0.433012701892"/6
#> XT:___SSR="0.433012701892"/6
#> XT:_CHIT_TENS_TOT="1.736070289829"/6
#> XT:_CHIT_THETA_TENS="1.736021505696"/6
#> XT:_SMU_CHIT_TENS_TOT="0.867029692037"/6
#> XT:__SS_CHIT_TENS_TOT="0.433012701892"/6
#> XT:____XR="1.736070289829"/6
#> XT:____XL="1.736070289829"/6
#> XT:__SMUL="0.867029692037"/6
#> XT:__SMUR="0.867029692037"/6
#> XT:___SSL="0.433012701892"/6
#> XT:___SSR="0.433012701892"/6
#> XT:_CHIT_TENS_TOT="1.736070289829"/6
#> XT:_CHIT_THETA_TENS="1.736023457009"/6
#> XT:_SMU_CHIT_TENS_TOT="0.867029692037"/6
#> XT:__SS_CHIT_TENS_TOT="0.433012701892"/6
#> XT:____XR="1.736070289829"/6
#> XT:____XL="1.736070289829"/6
#> XT:__SMUL="0.867029692037"/6
#> XT:__SMUR="0.867029692037"/6
#> XT:___SSL="0.433012701892"/6
#> XT:___SSR="0.433012701892"/6
#> XT:_CHIT_TENS_TOT="1.736070289829"/6
#> XT:_CHIT_THETA_TENS="1.736025258225"/6
#> XT:_SMU_CHIT_TENS_TOT="0.867029692037"/6
#> XT:__SS_CHIT_TENS_TOT="0.433012701892"/6
#> XT:____XR="1.736070289829"/6
#> XT:____XL="1.736070289829"/6
#> XT:__SMUL="0.867029692037"/6
#> XT:__SMUR="0.867029692037"/6
#> XT:___SSL="0.433012701892"/6
#> XT:___SSR="0.433012701892"/6
#> XT:_CHIT_TENS_TOT="1.736070289829"/6
#> XT:_CHIT_THETA_TENS="1.736026926020"/6
#> XT:_SMU_CHIT_TENS_TOT="0.867029692037"/6
#> XT:__SS_CHIT_TENS_TOT="0.433012701892"/6
#> XT:____XR="1.736070289829"/6
#> XT:____XL="1.736070289829"/6
#> XT:__SMUL="0.867029692037"/6
#> XT:__SMUR="0.867029692037"/6
#> XT:___SSL="0.433012701892"/6
#> XT:___SSR="0.433012701892"/6
#> XT:_CHIT_TENS_TOT="1.736070289829"/6
#> XT:_CHIT_THETA_TENS="1.736028474690"/6
#> XT:_SMU_CHIT_TENS_TOT="0.867029692037"/6
#> XT:__SS_CHIT_TENS_TOT="0.433012701892"/6
#> XT:____XR="1.736070289829"/6
#> XT:____XL="1.736070289829"/6
#> XT:__SMUL="0.867029692037"/6
#> XT:__SMUR="0.867029692037"/6
#> XT:___SSL="0.433012701892"/6
#> XT:___SSR="0.433012701892"/6
#> XT:_CHIT_TENS_TOT="1.736070289829"/6
#> XT:_CHIT_THETA_TENS="1.736029916558"/6
#> XT:_SMU_CHIT_TENS_TOT="0.867029692037"/6
#> XT:__SS_CHIT_TENS_TOT="0.433012701892"/6
#> XT:____XR="1.736070289829"/6
#> XT:____XL="1.736070289829"/6
#> XT:__SMUL="0.867029692037"/6
#> XT:__SMUR="0.867029692037"/6
#> XT:___SSL="0.433012701892"/6
#> XT:___SSR="0.433012701892"/6
#> XT:_CHIT_TENS_TOT="1.736070289829"/6
#> XT:_CHIT_THETA_TENS="1.736031262304"/6
#> XT:_SMU_CHIT_TENS_TOT="0.867029692037"/6
#> XT:__SS_CHIT_TENS_TOT="0.433012701892"/6
#> XT:_T="103.738560279671"/6
#> XT:_T="2.127082886158"/6
#> XT:_CHIT_THETA="2.093880180672"/6
#> XT:_CHIT_THETA="11.313708498985"/6
#> MR_MAGN__DHX[0]="0.0"/10
#> MR_MAGN__DHX[1]="0.0"/10
#> MR_MAGN__DHX[2]="-1.000000000000"/10
#> MR_MAGN__DHX[3]="1"/10
#> MR_MAGN__DHX[4]="0.0"/10
#> MR_MAGN__DHY[0]="0.0"/10
#> MR_MAGN__DHY[1]="-1.000000000000"/10
#> MR_MAGN__DHY[2]="0.0"/10
#> MR_MAGN__DHY[3]="0.0"/10
#> MR_MAGN__DHY[4]="0.0"/10
#> MR_MAGN__DHZ[0]="-1.000000000000"/10
#> MR_MAGN__DHZ[1]="0.0"/10
#> MR_MAGN__DHZ[2]="0.0"/10
#> MR_MAGN__DHZ[3]="0.0"/10
#> MR_MAGN__DHZ[4]="-1.000000000000"/10
#> MR_MAGN__DWX[0]="0.0"/10
#> MR_MAGN__DWX[1]="0.0"/10
#> MR_MAGN__DWX[2]="0.0"/10
#> MR_MAGN__DWX[3]="0.0"/10
#> MR_MAGN__DWX[4]="0.0"/10
#> MEX_MAGN____="0.000033675744"/8
#> MR_MAGN__WEX="0.000066124958"/8
#> ML_MAGN="0.0"/8
#> MR_MAGN="0.0"/8
#> MEX_MAGN____="0.324602571152"/8
#> MR_MAGN__WEX="0.661240994953"/8
#> ML_MAGN="0.0"/8
#> MR_MAGN="0.0"/8
#> MEX_MAGN____="0.587436072902"/8
#> MR_MAGN__WEX="1.322438363171"/8
#> ML_MAGN="0.0"/8
#> MR_MAGN="0.0"/8
#> MEX_MAGN____="0.766241622517"/8
#> MR_MAGN__WEX="1.983576383476"/8
#> ML_MAGN="0.0"/8
#> MR_MAGN="0.0"/8
#> MEX_MAGN____="0.873951569456"/8
#> MR_MAGN__WEX="2.644664189830"/8
#> ML_MAGN="0.0"/8
#> MR_MAGN="0.0"/8
#> MEX_MAGN____="0.934146705731"/8
#> MR_MAGN__WEX="3.305718437055"/8
#> ML_MAGN="0.0"/8
#> MR_MAGN="0.0"/8
#> MEX_MAGN____="0.966384934461"/8
#> MR_MAGN__WEX="3.966752938660"/8
#> ML_MAGN="0.0"/8
#> MR_MAGN="0.0"/8
#> MEX_MAGN____="0.983257434894"/8
#> MR_MAGN__WEX="4.627776587639"/8
#> ML_MAGN="0.0"/8
#> MR_MAGN="0.0"/8
#> MEX_MAGN____="0.991981625250"/8
#> MR_MAGN__WEX="5.288794481567"/8
#> ML_MAGN="0.0"/8
#> MR_MAGN="0.0"/8
#> MEX_MAGN____="0.996464348428"/8
#> MR_MAGN__WEX="5.949809379799"/8
#> ML_MAGN="0.0"/8
#> MR_MAGN="0.0"/8
#> MEX_MAGN____="0.998760256163"/8
#> MR_MAGN__WEX="6.610822733509"/8
#> ML_MAGN="0.0"/8
#> MR_MAGN="0.0"/8
#> MR_MAGN="0.0"/8
#> MR_MAGN="0.0"/8
#> MR_MAGN="0.0"/8
#> H_MAGN_______="19.621416870603"/6
#> MAGN_AVERAGED="2.747404793529"/6
#> ZTL_MAGN="4.054111363599"/8
#> MAGN_VECT_X___1="0.000067327276"/8
#> MAGN_VECT_Y___1="0.000067339383"/8
#> MAGN_VECT_Z___1="0.000058314122"/8
#> MAGN_VECT_X___2="0.648996259852"/8
#> MAGN_VECT_Y___2="0.649100709480"/8
#> MAGN_VECT_Z___2="0.562107553631"/8
#> MAGN_VECT_X___3="1.174595072362"/8
#> MAGN_VECT_Y___3="1.174733617252"/8
#> MAGN_VECT_Z___3="1.017309162327"/8
#> MAGN_VECT_X___4="1.532254864067"/8
#> MAGN_VECT_Y___4="1.532369058805"/8
#> MAGN_VECT_Z___4="1.327037568536"/8
#> MAGN_VECT_X___5="1.747753457403"/8
#> MAGN_VECT_Y___5="1.747828299760"/8
#> MAGN_VECT_Z___5="1.513642104226"/8
#> MAGN_VECT_X___6="1.868206410917"/8
#> MAGN_VECT_Y___6="1.868249911696"/8
#> MAGN_VECT_Z___6="1.617939326651"/8
#> MAGN_VECT_X___7="1.932722382413"/8
#> MAGN_VECT_Y___7="1.932746125813"/8
#> MAGN_VECT_Z___7="1.673800389919"/8
#> MAGN_VECT_X___8="1.966489782317"/8
#> MAGN_VECT_Y___8="1.966502326093"/8
#> MAGN_VECT_Z___8="1.703037349929"/8
#> MAGN_VECT_X___9="1.983950217322"/8
#> MAGN_VECT_Y___9="1.983956733922"/8
#> MAGN_VECT_Z___9="1.718155050407"/8
#> MAGN_VECT_X__10="1.992921984061"/8
#> MAGN_VECT_Y__10="1.992925340461"/8
#> MAGN_VECT_Z__10="1.725923003776"/8
#> MAGN_VECT_X__11="1.997517070077"/8
#> MAGN_VECT_Y__11="1.997518791203"/8
#> MAGN_VECT_Z__11="1.729901520872"/8
>>EOF
