************************************************************************
* This file is part of OpenMolcas.                                     *
*                                                                      *
* OpenMolcas is free software; you can redistribute it and/or modify   *
* it under the terms of the GNU Lesser General Public License, v. 2.1. *
* OpenMolcas is distributed in the hope that it will be useful, but it *
* is provided "as is" and without any express or implied warranties.   *
* For more details see the full text of the license in the file        *
* LICENSE or in <http://www.gnu.org/licenses/>.                        *
************************************************************************
DATA TABLE FROM ABGEN.
Table gives ALPHA(K),BETA(K), and zeroth
order polynomial P0 needed to generate Rys
polynomials.NTAB1,NTAB2 is first and last table
index. MAXDEG is highest K. MAXORD is highest
order derivatives used to integrate differential
equations. PRECIS is required accuracy of inte-
gration within subintervals.
Formula used for T at each tabular point:
TVAL=(SQRT(72900-260*ITAB+DBLE(ITAB*ITAB))-270+ITAB)/10
Reverse formula for later interpolation:
XTAB=5*T + 200*T/(14+T)
NTAB1, NTAB2, MAXDEG:
-2 678 19
MAXORD, PRECIS:
10 .100Q-19
TAB POINT NR., T PARAMETER, P0 VALUE:
-2 -.10313671289608236648 .98272361269943519529
ALPHA ARRAY:
.34258981436711465777 .52128275700717059604 .50631932414961733081 .50297885593084804180
.50173230525284807531 .50113267222114919708 .50079841139983890189 .50059307920148731911
.50045792801614922167 .50036424738662371628 .50029664550378565019 .50024626484372221712
.50020771398866739009 .50017755818572468326 .50015352488943677195 .50013406177694943509
.50011807917173330496 .50010479389151551418 .50009363130924627450 .50008416207955550531
BETA ARRAY:
.00000000000000000000 .30099435197422713319 .25533780445071803870 .25209223323143963998
.25111484453758238105 .25069244905975810004 .25047183897942283371 .25034215971833214650
.25025947930243566184 .25020353574318204162 .25016392317800086262 .25013484903954172538
.25011287975517948272 .25009587477954416398 .25008244321525527247 .25007164939663141885
.25006284508365149349 .25005556964336154107 .25004948846105580200 .25004435371608967112
TAB POINT NR., T PARAMETER, P0 VALUE:
-1 -.05170985071329710359 .99135962178050515612
ALPHA ARRAY:
.33795224225811215221 .52256610652182658356 .50640506183039424559 .50300432721318045985
.50174326011949333046 .50113838025555525218 .50080176207226783167 .50059521359492422774
.50045937129456601892 .50036526887491924654 .50029739497493877280 .50024683101013272296
.50020815212328130454 .50017790418777680663 .50015380289964725612 .50013428851518146363
.50011826651591215448 .50010495046816785991 .50009376350610906227 .50008427470840832498
BETA ARRAY:
.00000000000000000000 .29959164877392581548 .25544002684705671259 .25211408199187373535
.25112294040879295571 .25069633129837973271 .25047399937132081979 .25034348538662368676
.25026035122697300711 .25020413980223896994 .25016435890650798679 .25013517366836316777
.25011312809728343940 .25009606900229388775 .25008259797935024655 .25007177471311883151
.25006294797798619349 .25005565516375693749 .25004956031068159239 .25004441466137020366
TAB POINT NR., T PARAMETER, P0 VALUE:
0 .00000000000000000000 1.00000000000000000000
ALPHA ARRAY:
.33333333333333333333 .52380952380952380952 .50649350649350649351 .50303030303030303030
.50175438596491228070 .50114416475972540046 .50080515297906602254 .50059737156511350060
.50046082949308755760 .50036630036630036630 .50029815146094215862 .50024740227610094013
.50020859407592824364 .50017825311942959002 .50015408320493066256 .50013451708366962604
.50011845534233593935 .50010510826150935464 .50009389671361502347 .50008438818565400844
BETA ARRAY:
.00000000000000000000 .29814239699997195952 .25555062599997596530 .25213645282964960092
.25113117642528998771 .25070026927498254243 .25047618705348690719 .25034482628313658587
.25026123245234939153 .25020474993119370004 .25016479880253434373 .25013550127561637956
.25011337863827434902 .25009626489257105207 .25008275403684365451 .25007190105225806669
.25006305169438484899 .25005574135455315302 .25004963271397901384 .25004447606906050496
TAB POINT NR., T PARAMETER, P0 VALUE:
1 .05199436034372410809 1.00864298699425418390
ALPHA ARRAY:
.32873465461302364493 .52501109036961416455 .50658489259793476203 .50305679843579852179
.50176568657458431916 .50115002715010740863 .50080858477695117900 .50059955346122687478
.50046230281602472760 .50036734198910300021 .50029891504694110234 .50024797870062728620
.50020903988896429420 .50017860501199579696 .50015436582901516158 .50013474750077815587
.50011864566547883405 .50010526728313075803 .50009403094117640281 .50008450251903083900
BETA ARRAY:
.00000000000000000000 .29664726368666864267 .25566941077382766828 .25215936609023924132
.25113955610369353162 .25070426410828670205 .25047840249823892985 .25034618264395953320
.25026212311076047316 .25020536621038768459 .25016524291803117362 .25013583189656773168
.25011363140304733749 .25009646246852379448 .25008291140132572888 .25007202842446095440
.25006315624098198487 .25005582822221441003 .25004970567616194211 .25004453794342152262
TAB POINT NR., T PARAMETER, P0 VALUE:
2 .10427475328037871805 1.01728683165179345143
ALPHA ARRAY:
.32415775415740253720 .52616890769197239225 .50667945260866045482 .50308382915498420543
.50177716584571353284 .50115596887699793072 .50081205813621135670 .50060175963888501939
.50046379147112953844 .50036839387366112460 .50029968581931836042 .50024856034351862816
.50020948960529323941 .50017895989717306135 .50015465079590724016 .50013497978507752782
.50011883749997109857 .50010542754474314550 .50009416619829969660 .50008461771635199641
BETA ARRAY:
.00000000000000000000 .29510696850112554464 .25579617202599101133 .25218284385412116390
.25114808308238399783 .25070831694636635308 .25048064618833336836 .25034755470977904773
.25026302333672875466 .25020598872146151274 .25016569130573035608 .25013616556698024510
.25011388641682828214 .25009666174852892101 .25008307008654980629 .25007215684025877818
.25006326162600161588 .25005591577327330319 .25004977920249739681 .25004460028875614277
TAB POINT NR., T PARAMETER, P0 VALUE:
3 .15684270348992299104 1.02592979446697007503
ALPHA ARRAY:
.31960415852723869815 .52728110035582349528 .50677741638503584898 .50311141164022305497
.50178882779154930886 .50116199142555443342 .50081557374104912424 .50060399046030181241
.50046529566966450221 .50036945615234356176 .50030046386571514864 .50024914726540096868
.50020994326837458084 .50017931780704915194 .50015493812989526462 .50013521395534693163
.50011903086060083411 .50010558905817917743 .50009430249458658510 .50008473378550625111
BETA ARRAY:
.00000000000000000000 .29352228273455357560 .25593068229087334281 .25220690995247754451
.25115676112745484485 .25071242896762905533 .25048291861725083670 .25034894272598861978
.25026393326715290089 .25020661754737990992 .25016614401915819690 .25013650232312169983
.25011414370517883008 .25009686275119514181 .25008323010643448523 .25007228631030375510
.25006336785775828605 .25005600401433154429 .25004985329830608429 .25004466310940959177
TAB POINT NR., T PARAMETER, P0 VALUE:
4 .20969973722197324251 1.03457014986634448063
ALPHA ARRAY:
.31507537029234882524 .52834581910674445181 .50687901054139304987 .50313956312778429672
.50180067654593245037 .50116809631684439888 .50081913228993625141 .50060624629443247153
.50046681562647367570 .50037052895959157340 .50030124927505255746 .50024973952773236467
.50021040092223169594 .50017967877410731878 .50015522785555309435 .50013545003057677845
.50011922576231575977 .50010575183539438225 .50009443983973487396 .50008485073445866439
BETA ARRAY:
.00000000000000000000 .29189402815299021599 .25607269548174649401 .25223158997830641285
.25116559413913834341 .25071660138183653996 .25048522028949106284 .25035034694280095937
.25026485304135830031 .25020725277245730669 .25016660111264950098 .25013684220177289871
.25011440329400150467 .25009706549536635937 .25008339147506581615 .25007241684537053611
.25006347494465812119 .25005609295206071552 .25004992796896294616 .25004472640976984147
TAB POINT NR., T PARAMETER, P0 VALUE:
5 .26284738214527009204 1.04320618850051295821
ALPHA ARRAY:
.31057286559704400019 .52936124390311182629 .50698445777969289804 .50316830169614110561
.50181271636808422958 .50117428510893348507 .50082273449597930249 .50060852751712565730
.50046835156005540671 .50037161243195727220 .50030204213755339369 .50025033719281608243
.50021086261146013323 .50018004283123172298 .50015551999774374732 .50013568802997124015
.50011942222022501047 .50010591588846845336 .50009457824353944457 .50008496857125129441
BETA ARRAY:
.00000000000000000000 .29022307571074206373 .25622194661187016280 .25225691129259665633
.25117458615872598674 .25072083543116902386 .25048755172087774036 .25035176761536345412
.25026578280114890576 .25020789448238399090 .25016706264136193820 .25013718524023608887
.25011466520954490185 .25009727000012500987 .25008355420669952422 .25007254845635772692
.25006358289519989456 .25005618259320303135 .25005000321989771341 .25004479019426801817
TAB POINT NR., T PARAMETER, P0 VALUE:
6 .31628716719447425021 1.05183621949423638312
ALPHA ARRAY:
.30609809179129984554 .53032558692344778336 .50709397619408774765 .50319764632557797284
.50182495164765688659 .50118055939801443461 .50082638108729653846 .50061083451127967704
.50046990369263683430 .50037270670814287392 .50030284254476445987 .50025094032381399514
.50021132838123604850 .50018041001171295145 .50015581458162311850 .50013592797295082227
.50011962024960095668 .50010608122960656015 .50009471771589321377 .50008508730400390825
BETA ARRAY:
.00000000000000000000 .28851034413049698803 .25637815153639760090 .25228290302520276716
.25118374137600476532 .25072513239133552580 .25048991343887365174 .25035320500387694688
.25026672269086039374 .25020854276425285974 .25016752866129070961 .25013753147634354497
.25011492947840897838 .25009747628479545924 .25008371831576326557 .25007268115428943002
.25006369171797610601 .25005627294457210917 .25005007905659546618 .25004485446737881528
TAB POINT NR., T PARAMETER, P0 VALUE:
7 .37002062241422206679 1.06045857264787650546
ALPHA ARRAY:
.30165246513614690471 .53123709552634077821 .50720777854735139023 .50322761695896401073
.50183738691006512129 .50118692081957861127 .50083007280740654017 .50061316766700291700
.50047147225025019080 .50037381192904081018 .50030365058957928033 .50025154898476022755
.50021179827732478427 .50018078034925361812 .50015611163264375182 .50013616987915497089
.50011981986588104588 .50010624787114067326 .50009485826678810280 .50008520694091469995
BETA ARRAY:
.00000000000000000000 .28675679835471156737 .25654100671660108689 .25230959607004562837
.25119306413722997935 .25072949357273279818 .25049230598290647759 .25035465937371794440
.25026767285741468079 .25020919770658678705 .25016799922928352103 .25013788094846631743
.25011519612755043369 .25009768436894745452 .25008388381685891737 .25007281495031680786
.25006380142167407480 .25005636401305374872 .25005015548459719936 .25004491923362090974
TAB POINT NR., T PARAMETER, P0 VALUE:
8 .42404927880054971157 1.06907160058338697734
ALPHA ARRAY:
.29723736859141899076 .53209405515489307634 .50732607151921674229 .50325823456353150342
.50185002682211924492 .50119337104963217480 .50083381041562899478 .50061552738177864242
.50047305746281096003 .50037492823777472647 .50030446636626128645 .50025216324057505418
.50021227234608959652 .50018115387797405381 .50015641117655866725 .50013641376844471452
.50012002108466966675 .50010641582553090459 .50009499990631601591 .50008532749026101488
BETA ARRAY:
.00000000000000000000 .28496344787349755157 .25671018900799671819 .25233702307425559066
.25120255895365460918 .25073392032165569947 .25049472990470573440 .25035613099556437721
.25026863345037583927 .25020985939936662368 .25016847440305587256 .25013823369552315006
.25011546518428818778 .25009789427239963215 .25008405072476490284 .25007294985571966806
.25006391201507704635 .25005645580560672062 .25005023250950039408 .25004498449755738232
TAB POINT NR., T PARAMETER, P0 VALUE:
9 .47837466813950868527 1.07767368082830916937
ALPHA ARRAY:
.29285414969362723342 .53289479217795812374 .50744905492675597419 .50328952119348092639
.50186287619798167546 .50119991180595899079 .50083759468749808700 .50061791406063429792
.50047465956419793951 .50037605577974138458 .50030528997046746926 .50025278315707905488
.50021275063450053008 .50018153063241808532 .50015671323942524293 .50013665966090534076
.50012022392174003548 .50010658510536686167 .50009514264466982819 .50008544896040008005
BETA ARRAY:
.00000000000000000000 .28313134493483367471 .25688535547398739186 .25236521842086434068
.25121223051063436018 .25073841402156201905 .25049718576865129229 .25035762014552502824
.25026960462200745195 .25021052793405984619 .25016895424120667011 .25013858975698956992
.25011573667630895643 .25009810601522308362 .25008421905443855113 .25007308588190807033
.25006402350706531297 .25005654832926356390 .25005031013695959506 .25004505026379614169
TAB POINT NR., T PARAMETER, P0 VALUE:
10 .53299832284320136644 1.08626321783157232452
ALPHA ARRAY:
.28850411853125297183 .53363767666079364826 .50757692091704120449 .50332150005321507631
.50187594000546963893 .50120654484943254844 .50084142641518898479 .50062032811631546337
.50047627879233526796 .50037719470265349785 .50030612149927251388 .50025340880100753586
.50021323319014344763 .50018191064755890705 .50015701784760915478 .50013690757684910936
.50012042839303610575 .50010675572336901738 .50009528649214438355 .50008557135976974096
BETA ARRAY:
.00000000000000000000 .28126158264347438277 .25706614322668254399 .25239421820464325574
.25122208367732652789 .25074297609439502298 .25049967415213396532 .25035912710527276306
.25027058652733145285 .25021120340364987406 .25016943880323416927 .25013894917290715477
.25011601063167292687 .25009831961774498043 .25008438882101849353 .25007322304042395626
.25006413590661734913 .25005664159113139294 .25005038837268699404 .25004511653699035247
TAB POINT NR., T PARAMETER, P0 VALUE:
11 .58792177578301330065 1.09483864490514297971
ALPHA ARRAY:
.28418854582430509579 .53432112505814135300 .50770985313243367181 .50335419556098500629
.50188922337272790849 .50121327198537924360 .50084530640795789879 .50062276996946460610
.50047791538927646799 .50037834515658351859 .50030696105119342416 .50025404024002521956
.50021372006122921375 .50018229395880504527 .50015732502778837306 .50013715753681800126
.50012063451467450157 .50010692769239009450 .50009543145913750227 .50008569469688920468
BETA ARRAY:
.00000000000000000000 .27935529295546133838 .25725216929658818297 .25242406020067739770
.25123212351699950986 .25074760800196718962 .25050219564592867105 .25036065216218168796
.25027157932418849577 .25021188590266607120 .25016992814955225747 .25013931198389298072
.25011628707881953485 .25009853510055225880 .25008456003982709596 .25007336134294280170
.25006424922281096117 .25005673559839271369 .25005046722245301935 .25004518332183886725
TAB POINT NR., T PARAMETER, P0 VALUE:
12 .64314656012026039100 1.10339842608598743758
ALPHA ARRAY:
.27990866111442693444 .53494360282317566728 .50784802584896942478 .50338763341271013579
.50190273159529657813 .50122009506499558591 .50084923549259624763 .50062524004880479524
.50047956960129056878 .50037950729400840754 .50030780872621465234 .50025467754274121180
.50021421129660303888 .50018268060200641846 .50015763480695721847 .50013740956158650520
.50012084230294647436 .50010710102541646598 .50009557755615099871 .50008581898035978946
BETA ARRAY:
.00000000000000000000 .27741364457560539282 .25744303053289594601 .25245478382525699950
.25124235529796841377 .25075231124740889222 .25050475085458070209 .25036219560946837922
.25027258317329990086 .25021257552721445304 .25017042234150708514 .25013967823114925576
.25011656604657334662 .25009875248449536599 .25008473272637292907 .25007350080127529271
.25006436346482445194 .25005683035830624965 .25005054669208693164 .25004525062308666262
TAB POINT NR., T PARAMETER, P0 VALUE:
13 .69867420913406586003 1.11194105791312441908
ALPHA ARRAY:
.27566565107130987034 .53550362692621106589 .50799160308843636035 .50342184064571321155
.50191647014359980878 .50122701598682199975 .50085321451389945659 .50062773879132853224
.50048124167895036332 .50038068126985540677 .50030866462581374313 .50025532077872425024
.50021470694575398493 .50018307061346049411 .50015794721243047753 .50013766367216444168
.50012105177431988392 .50010727573556957058 .50009572479379170911 .50008594421886568090
BETA ARRAY:
.00000000000000000000 .27543784076575065130 .25763830353612935412 .25248643008866145106
.25125278450517045459 .25075708737668601832 .25050734039680566139 .25036375774633732152
.25027359823833122458 .25021327237500911634 .25017092144139405278 .25014004795647314202
.25011684756415004675 .25009897179069206891 .25008490689635327608 .25007364142736902498
.25006447864193780047 .25005692587820777734 .25005062678747742597 .25004531844552527928
TAB POINT NR., T PARAMETER, P0 VALUE:
14 .75450625604661358814 1.12046507111499991731
ALPHA ARRAY:
.27146065792055281064 .53599976827753832201 .50814073770487462684 .50345684570208865566
.50193044467088256852 .50123403669827610046 .50085724433515096472 .50063026664249187223
.50048293187722286689 .50038186724154884588 .50030952885298750686 .50025597001851824201
.50021520705882463718 .50018346402991854497 .50015826227184757926 .50013791988979982558
.50012126294544120410 .50010745183610734461 .50009587318277252967 .50008607042117469470
BETA ARRAY:
.00000000000000000000 .27342911707200197518 .25783754462493371054 .25251904153940532835
.25126341685239196416 .25076193798019082461 .25050996490590365793 .25036533887813070838
.25027462468595750549 .25021397654540441358 .25017142551247516418 .25014042120226677236
.25011713166116253512 .25009919304053132666 .25008508256565667949 .25007378323331022754
.25006459476353385697 .25005702216551097179 .25005070751457324022 .25004538679399326631
TAB POINT NR., T PARAMETER, P0 VALUE:
15 .81064423384573847109 1.12896903220281221139
ALPHA ARRAY:
.26729477799750345307 .53643065404925233647 .50829557044637718372 .50349267849139953181
.50194466102162330567 .50124115919724848909 .50086132583862202856 .50063282405641400909
.50048464045556203975 .50038306536905800763 .50031040151227873379 .50025662533365809656
.50021571168662094555 .50018386088859200634 .50015858001317683396 .50013817823598176782
.50012147583313755354 .50010762934042566972 .50009602273391346519 .50008619759613904622
BETA ARRAY:
.00000000000000000000 .27138873897943292473 .25804028983881849608 .25255266219951138328
.25127425829515661283 .25076686469441060573 .25051262503018838197 .25036693931648275878
.25027566268593023726 .25021468813942789201 .25017193461899675483 .25014079801154746523
.25011741836762713505 .25009941625567722822 .25008525975036552733 .25007392623132551104
.25006471183909955353 .25005711922770826207 .25005078887938377011 .25004545567337662963
TAB POINT NR., T PARAMETER, P0 VALUE:
16 .86708967510485313035 1.13745154496586595618
ALPHA ARRAY:
.26316906043097438342 .53679496989144341286 .50845622899322142242 .50352937045237433942
.50195912524045141029 .50124838553376431104 .50086545992608794084 .50063541149608250578
.50048636767800384055 .50038427581494608123 .50031128270980346258 .50025728679668586021
.50021622088062223861 .50018426122715893628 .50015890046471973527 .50013843873244341679
.50012169045441875167 .50010780826205983713 .50009617345814268828 .50008632575269612689
BETA ARRAY:
.00000000000000000000 .26931799950306550848 .25824605497867946983 .25258733749037213125
.25128531504428198259 .25077186920367906975 .25051532143343171457 .25036855937947871148
.25027671241114612239 .25021540725981401853 .25017244882620760472 .25014117842795814266
.25011770771396991495 .25009964145807299655 .25008543846675867953 .25007407043378364102
.25006482987822713057 .25005721707237169698 .25005087088797969069 .25004552508860928474
TAB POINT NR., T PARAMETER, P0 VALUE:
17 .92384411180023562338 1.14591125186549899648
ALPHA ARRAY:
.25908450596006896387 .53709146203864117752 .50862282697352565922 .50356695461324999425
.50197384358159916721 .50125571781171403918 .50086964751936131306 .50063802943356435911
.50048811381326367971 .50038549874442023246 .50031217255327881695 .50025795448116715946
.50021673469299141425 .50018466508377058088 .50015922365511532660 .50013870140116494023
.50012190682647940072 .50010798861468602846 .50009632536649760924 .50008645489986928743
BETA ARRAY:
.00000000000000000000 .26721821672413263502 .25845433568694056031 .25262311414875974112
.25129659358010887515 .25077695324201563962 .25051805479532456260 .25037019939181866588
.25027777403771766283 .25021613401103871282 .25017296820037744575 .25014156249577795607
.25011799973103312609 .25009986866994506048 .25008561873131413535 .25007421585319733664
.25006494889061537954 .25005731570715382108 .25005095354649358468 .25004559504467351378
TAB POINT NR., T PARAMETER, P0 VALUE:
18 .98090907512571445803 1.15434683532460077577
ALPHA ARRAY:
.25504206588668376751 .53731893930292082826 .50879546295779591607 .50360546565038170089
.50198882251891866963 .50126315819065717081 .50087388956084310261 .50064067835022309637
.50048987913483634489 .50038673432538282137 .50031307115205142460 .50025862846170796039
.50021725317658531087 .50018507249705804690 .50015954961334463347 .50013896626437654841
.50012212496670099391 .50010817041212281364 .50009647847012595712 .50008658504676862829
BETA ARRAY:
.00000000000000000000 .26509073128079800535 .25866460756916229888 .25266004013254347851
.25130810066740467036 .25078211859505824137 .25052082581195464919 .25037185968498644624
.25027884774504564577 .25021686849935471162 .25017349280881587394 .25014195025993312500
.25011829445008175910 .25010009791380719592 .25008580056071174275 .25007436250222509547
.25006506888607090197 .25005741513978856135 .25005103686112057745 .25004566554660042697
TAB POINT NR., T PARAMETER, P0 VALUE:
19 1.03828609530472126821 1.16275701891021430579
ALPHA ARRAY:
.25104264116558544916 .53747627495060000881 .50897421943390833180 .50364493994471395603
.50200406875649481443 .50127070888770276245 .50087818701409209237 .50064335873694210586
.50049166392109847104 .50038798272848379739 .50031397861712643233 .50025930881397165075
.50021777638496526258 .50018548350613908361 .50015987836873516259 .50013923334456155918
.50012234489265405038 .50010835366833266588 .50009663278028687167 .50008671620259179709
BETA ARRAY:
.00000000000000000000 .26293690382261838592 .25887632635896300397 .25269816451567506776
.25131984337093863910 .25078736710209548722 .25052363519630202741 .25037354059742367104
.25027993371589358375 .25021761083282778724 .25017402271989167651 .25014234176600799367
.25011859190281022172 .25010032921246473763 .25008598397183595015 .25007451039367304461
.25006518987450938531 .25005751537809212447 .25005112083811897908 .25004573659947042856
TAB POINT NR., T PARAMETER, P0 VALUE:
20 1.09597670139977476644 1.17114056840721641431
ALPHA ARRAY:
.24708708163327859110 .53756240845996757654 .50915916176426125405 .50368541563567983892
.50201958923988608448 .50127837217947099852 .50088254086441357212 .50064607109435441526
.50049346845541363273 .50038924412717430481 .50031489506119713279 .50025999561469645291
.50021830437240784277 .50018589815062497626 .50016020995096546929 .50013950266445950580
.50012256662210027740 .50010853839742349418 .50009678830835200670 .50008684837662479341
BETA ARRAY:
.00000000000000000000 .26075811243808107317 .25908892812809125100 .25273753737200531198
.25133182907172339135 .25079270065820453738 .25052648367875313226 .25037524247470922036
.25028103213646417219 .25021836112137384520 .25017455800305258507 .25014273706025631071
.25011889212134914055 .25010056258901886321 .25008616898177860194 .25007465954049681875
.25006531186595689572 .25005761642996390510 .25005120548381093334 .25004580820841368725
TAB POINT NR., T PARAMETER, P0 VALUE:
21 1.15398242111942295196 1.17949629278155649642
ALPHA ARRAY:
.24317618537621343689 .53757634715798620439 .50935033712702739964 .50372693267206791016
.50203539116802524982 .50128615040414026356 .50088695211946800452 .50064881593307913900
.50049529302624013815 .50039051869776153187 .50031582059867521832 .50026068894171317525
.50021883719391580030 .50018631647062755367 .50016054439006979468 .50013977424706928840
.50012279017299476032 .50010872461365019386 .50009694506580664503 .50008698157824278096
BETA ARRAY:
.00000000000000000000 .25855575006454612978 .25930182954347147278 .25277820964750011321
.25134406548391252917 .25079812121650130168 .25052937200763423139 .25037696566974430098
.25028214319647782905 .25021911947679692622 .25017509872884546598 .25014313618961273754
.25011919513827228979 .25010079806687095079 .25008635560784177824 .25007480995580346583
.25006543487055118831 .25005771830338740520 .25005129080458307391 .25004588037861061130
TAB POINT NR., T PARAMETER, P0 VALUE:
22 1.21230478062257129857 1.18782304503201005036
ALPHA ARRAY:
.23931069823822756844 .53751716773439608998 .50954777344364012869 .50376953285936753874
.50205148200581238417 .50129404596358447033 .50089142180990048960 .50065159377396481944
.50049713792724160377 .50039180661946483533 .50031675534572167602 .50026138887396330875
.50021937490522919138 .50018673850676631142 .50016088171644277326 .50014004811565236945
.50012301556348818043 .50010891233141621475 .50009710306425082485 .50008711581691090714
BETA ARRAY:
.00000000000000000000 .25633122188986748854 .25951442817301821427 .25282023302043084308
.25135656067234007172 .25080363079051002474 .25053230094976517928 .25037871054294331496
.25028326708925338163 .25021988601282813731 .25017564496893695855 .25014353920170459029
.25011950098660364920 .25010103566972701173 .25008654386754067977 .25007496165285338033
.25006555889854303480 .25005782100643116456 .25005137680688718777 .25004595311529232823
TAB POINT NR., T PARAMETER, P0 VALUE:
23 1.27094530432036667555 1.19611972292992428429
ALPHA ARRAY:
.23549131346645143510 .53738401763211239006 .50975147829485969597 .50381325990307467090
.50206786949743278945 .50130206132560574490 .50089595098999190038 .50065440514833990743
.50049900345740039875 .50039310807447317873 .50031769942027834263 .50026209549151747875
.50021991756283671305 .50018716430017565422 .50016122196084421325 .50014032429373601464
.50012324281192906176 .50010910156527514825 .50009726231540047824 .50008725110218513036
BETA ARRAY:
.00000000000000000000 .25408594275484539862 .25972610284197922485 .25286365974912327286
.25136932307068239183 .25080923145665972432 .25053527129103444480 .25038047746243075344
.25028440401179097300 .25022066084516554068 .25017619679613457413 .25014394614486382194
.25011980969982459505 .25010127542160220037 .25008673377860655900 .25007511464506226542
.25006568396029756938 .25005792454724970297 .25005146349724088605 .25004602642374116936
TAB POINT NR., T PARAMETER, P0 VALUE:
24 1.32990551467552231557 1.20438526964687035268
ALPHA ARRAY:
.23171867149429765607 .53717611631324974492 .50996143782798186279 .50385815944741040058
.50208456168043229154 .50131019902626786821 .50090054073833258437 .50065725059827062388
.50050088992113404263 .50039442324800391764 .50031865294210013365 .50026280887559425825
.50022046522398724115 .50018759389251225879 .50016156515440395027 .50014060280511657953
.50012347193686604691 .50010929232993233277 .50009742283108858148 .50008738744371305498
BETA ARRAY:
.00000000000000000000 .25182133456550982452 .25993621404151912052 .25290854250686053974
.25138236150021805474 .25081492535691533891 .25053828383699642482 .25038226680424433895
.25028555416485725719 .25022144409151502642 .25017675428440826696 .25014435706813924945
.25012012131188122623 .25010151734682540194 .25008692535898969821 .25007526894600312377
.25006581006629565261 .25005802893408447392 .25005155088222828236 .25004610030929115912
TAB POINT NR., T PARAMETER, P0 VALUE:
25 1.38918693199923382053 1.21261867427062274082
ALPHA ARRAY:
.22799335985952941243 .53689275640052065336 .51017761565797523030 .50390427910887504907
.50210156690058218807 .50131846167233626671 .50090519215851959150 .50066013067682646669
.50050279762841465090 .50039575232836297189 .50031961603278796570 .50026352910857935302
.50022101794670157853 .50018802732596256068 .50016191132862677649 .50014088367386284322
.50012370295705020267 .50010948464024647846 .50009758462326631787 .50008752485123477422
BETA ARRAY:
.00000000000000000000 .24953882372401197431 .26014410439119683205 .25295493420354981190
.25139568518915528718 .25082071470155188665 .25054133941349213029 .25038407895254465719
.25028671775307296037 .25022223587163219922 .25017731750891249043 .25014477202130903283
.25012043585719182939 .25010176147004390084 .25008711862686243576 .25007542456940827827
.25006593722713525416 .25005813417526483023 .25005163896850067883 .25004617477732850935
TAB POINT NR., T PARAMETER, P0 VALUE:
26 1.44879107424561648365 1.22081897221030945449
ALPHA ARRAY:
.22431591325483739253 .53653330469413738542 .51039995176556079980 .50395166850403016184
.50211889382756558572 .50132685194383069469 .50090990637987842129 .50066304594835362731
.50050472689489151947 .50039709550700642104 .50032058881582238830 .50026425627404516587
.50022157578978441722 .50018846464325036696 .50016226051539744609 .50014116692431938961
.50012393589143735585 .50010967851123131121 .50009774770400425293 .50008766333458372104
BETA ARRAY:
.00000000000000000000 .24723983858665116045 .26034909915691679472 .25300288779377885608
.25140930379249059507 .25082660177208034420 .25054443886729438549 .25038591429983152369
.25028789498500288388 .25022303630736530736 .25017788654600875072 .25014519105489341155
.25012075337065448556 .25010200781622813056 .25008731360062224108 .25007558152917142266
.25006606545353285435 .25005824027920900186 .25005172776277725985 .25004624983329211856
TAB POINT NR., T PARAMETER, P0 VALUE:
27 1.50871945680374319743 1.22898524549203628423
ALPHA ARRAY:
.22068681370779450020 .53609720306469625483 .51062836139547945376 .50400037927087061096
.50213655147151617296 .50133537259669717362 .50091468455821034490 .50066599698875659948
.50050667804201694685 .50039845297860356422 .50032157141659794395 .50026499045677074976
.50022213881283651970 .50018890588764459753 .50016261274698575904 .50014145258111003727
.50012417075919045991 .50010987395805723641 .50009791208549352228 .50008780290368752715
BETA ARRAY:
.00000000000000000000 .24492580695725729222 .26055050682584804832 .25305245607090838731
.25142322741235545744 .25083258892433440043 .25054758306677875758 .25038777324716734613
.25028908607324843044 .25022384552269924537 .25017846147328867153 .25014561422016770501
.25012107388765482196 .25010225641067650723 .25008751029889483979 .25007573983934970303
.25006619475632486506 .25005834725442508586 .25005181727184579374 .25004632548267407628
TAB POINT NR., T PARAMETER, P0 VALUE:
28 1.56897359228729560421 1.23711662294669874137
ALPHA ARRAY:
.21710649088654466297 .53558396922283699840 .51086273395842716961 .50405046508311854060
.50215454920043944597 .50134402646560617017 .50091952787656640825 .50066898438578827083
.50050865139717539457 .50039982494110148465 .50032256396245827486 .50026573174276215883
.50022270707626712397 .50018935110296715797 .50016296805605172437 .50014174066914131884
.50012440757968199283 .50011007099605302273 .50009807778004703243 .50008794356856889028
BETA ARRAY:
.00000000000000000000 .24259815362381115380 .26074761973970411475 .25310369144686863762
.25143746661880091270 .25083867859172766697 .25055077290262150518 .25038965620440775333
.25029029123454273692 .25022466364380066172 .25017904236959758346 .25014604156917558341
.25012139744407391204 .25010250727902034842 .25008770874053738972 .25007589951416583053
.25006632514646907031 .25005845510951204899 .25005190750256334250 .25004640173102017261
TAB POINT NR., T PARAMETER, P0 VALUE:
29 1.62955499032192951958 1.24521228029210615241
ALPHA ARRAY:
.21357532252709552241 .53499319736674594262 .51110293194037387143 .50410198165674062159
.50217289675854511907 .50135281646688445715 .50092443754604928778 .50067200873934880496
.50051064729381609245 .50040121159579116306 .50032356658273199682 .50026648021927320750
.50022328064130657813 .50018980033360094681 .50016332647565080511 .50014203121360601111
.50012464637249638728 .50011026964070750655 .50009824480010067488 .50008808533934645007
BETA ARRAY:
.00000000000000000000 .24025829794580467991 .26093971478766018492 .25315664571735446892
.25145203247096228919 .25084487328869136961 .25055400928852591822 .25039156359043977690
.25029151068984850200 .25022549079906420510 .25017962931505865274 .25014647315474261623
.25012172407629632765 .25010276044722887949 .25008790894464170907 .25007606056801022622
.25006645663504608689 .25005856385316074314 .25005199846185697978 .25004647858393041304
TAB POINT NR., T PARAMETER, P0 VALUE:
30 1.69046515733026003758 1.25327144011189201564
ALPHA ARRAY:
.21009363497765352403 .53432455870881166352 .51134878982321682442 .50415498674795977655
.50219160428551774783 .50136174560158854786 .50092941480664421728 .50067507066179362414
.50051266607158919286 .50040261314737518066 .50032457940876935766 .50026723597482664593
.50022385957001920824 .50019025362449799933 .50016368803923924571 .50014232423998671628
.50012488715743249286 .50011046990767131692 .50009841315821455342 .50008822822623567227
BETA ARRAY:
.00000000000000000000 .23790765149944244054 .26112605416005053591 .25321136981214238091
.25146693653853820036 .25085117561430295385 .25055729316197849622 .25039349583342787891
.25029274466445859637 .25022632711915994160 .25018022239109756263 .25014690903049010428
.25012205382121834614 .25010301594161432868 .25008811093053755754 .25007622301544319831
.25006658923326084541 .25005867349415493355 .25005209015672451714 .25004655604705953863
TAB POINT NR., T PARAMETER, P0 VALUE:
31 1.75170559631464461958 1.26129337173407314240
ALPHA ARRAY:
.20666170385502095025 .53357780188293926974 .51160011302095475736 .50420954014200297585
.50221068233675066789 .50137081695872813210 .50093446092808029272 .50067817077825083014
.50051470807648559100 .50040402980403706009 .50032560257397970332 .50026799909923576359
.50022444392531642616 .50019071102118777179 .50016405278067948440 .50014261977405949597
.50012512995450607190 .50011067181275862203 .50009858286707422517 .50008837223954974197
BETA ARRAY:
.00000000000000000000 .23554761578733837500 .26130588616383998025 .25326791353028572999
.25148219092350939174 .25085758825611648727 .25056062548503651721 .25039545337106814125
.25029399338809955204 .25022717273708197944 .25018082168046776388 .25014734925084920337
.25012238671625631668 .25010327378883711358 .25008831471779597180 .25007638687119715269
.25006672295244409213 .25005878404137234053 .25005218259423523885 .25004663412611755167
TAB POINT NR., T PARAMETER, P0 VALUE:
32 1.81327780663771132019 1.26927739101241418252
ALPHA ARRAY:
.20327975480772741980 .53275275323419217447 .51185667683579902539 .50426570363179725860
.50223014190456588501 .50138003371864843345 .50093957721072351425 .50068130972694840282
.50051677366098052454 .50040546177751228900 .50032663621386977075 .50026876968362643006
.50022503377097008177 .50019117256978556831 .50016442073424565168 .50014291784189755848
.50012537478395232877 .50011087537194889703 .50009875393949195550 .50008851738970046553
BETA ARRAY:
.00000000000000000000 .23317958001891009627 .26147844610069468060 .25332632525998072494
.25149780828201385389 .25086411399420612848 .25056400724514863403 .25039743665085094011
.25029525709503802662 .25022802778819833656 .25018142726727630886 .25014779387107534630
.25012272279935518910 .25010353401591112053 .25008852032623265619 .25007655215017883739
.25006685780405391207 .25005889550378569447 .25005227578153064534 .25004671282687024691
TAB POINT NR., T PARAMETER, P0 VALUE:
33 1.87518328380072318851 1.27722286001407155171
ALPHA ARRAY:
.19994796438024193581 .53184931699255159819 .51211822543886468946 .50432354098579771358
.50224999444043977102 .50138939915658097716 .50094476498650301177 .50068448815955153856
.50051886318418107510 .50040690928316107562 .50032768046608283036 .50026954782045958434
.50022562917162606582 .50019163831700111388 .50016479193462915702 .50014321846987500080
.50012562166622847377 .50011108060138871399 .50009892638840798713 .50008866368719918175
BETA ARRAY:
.00000000000000000000 .23080491896718696631 .26164295720829220114 .25338665168293620230
.25151380184628500095 .25087075570543434206 .25056743945601024613 .25039944613033244896
.25029653602419034477 .25022889241030208899 .25018203923701028564 .25014824294726297104
.25012306210899720924 .25010379665020907918 .25008872777591142998 .25007671886747162153
.25006699379967727370 .25005900789046380469 .25005236972582520547 .25004679215513974843
TAB POINT NR., T PARAMETER, P0 VALUE:
34 1.93742351921978861462 1.28512918661724978728
ALPHA ARRAY:
.19666646097234187794 .53086747533267045244 .51238447088030310160 .50438311790410346563
.50227025187825111289 .50139891664637282066 .50095002561987197431 .50068770674151050152
.50052097701197769559 .50040837254004288532 .50032873547043869967 .50027033360355418317
.50022623019281816847 .50019210831014727642 .50016516641694436530 .50014352168467060605
.50012587062201632198 .50011128751739355422 .50009910022689182350 .50008881114265768219
BETA ARRAY:
.00000000000000000000 .22842499090725489572 .26179863166530585121 .25344893746312444955
.25153018544654951074 .25087751636795690538 .25057092315845550042 .25040148227741532756
.25029783041923522176 .25022976674366383853 .25018265767656386843 .25014869653636056245
.25012340468421078466 .25010406171946803427 .25008893708714773228 .25007688703833780953
.25006713095103159564 .25005912121057264225 .25005246443440711776 .25004687211680505233
TAB POINT NR., T PARAMETER, P0 VALUE:
35 2.00000000000000000000 1.29299582402285363694
ALPHA ARRAY:
.19343532588748081179 .52980728832154736069 .51265509213394789001 .50444450196199129883
.50229092665856430876 .50140858966440490851 .50095536050880489549 .50069096615241938104
.50052311551719989479 .50040985177099281063 .50032980136897465174 .50027112712811061989
.50022683690098219997 .50019258259714894125 .50016554421673436516 .50014382751327169773
.50012612167222492794 .50011149613644964343 .50009927546814352701 .50008895976678914092
BETA ARRAY:
.00000000000000000000 .22604113564104989324 .26194467166027508833 .25351322491983892014
.25154697353277071650 .25088439906597710952 .25057445942138789685 .25040354557063897430
.25029914052872977937 .25023065093108554031 .25018328267426600148 .25014915469618601597
.25012375056457952473 .25010432925179491684 .25008914828051218581 .25007705667822099133
.25006726926996633587 .25005923547337643709 .25005255991463908081 .25004695271780257528
TAB POINT NR., T PARAMETER, P0 VALUE:
36 2.06291420870753361427 1.30082227018432412384
ALPHA ARRAY:
.19025459446381300373 .52866889375606382724 .51292973418174481214 .50450776253997140182
.50231203175395618360 .50141842179371082965 .50096077108583283490 .50069426708638616313
.50052527907977621327 .50041134720269982750 .50033087830598724200 .50027192849073462544
.50022744936347037926 .50019306122655204133 .50016592536997683089 .50014413598297805188
.50012637483799325680 .50011170647521581022 .50009945212549503209 .50008910957040905402
BETA ARRAY:
.00000000000000000000 .22365467261269839633 .26208027052433103856 .25357955368503745610
.25156418119611216298 .25089140699476186944 .25057804934275159654 .25040563649947973616
.25030046660622896811 .25023154511795573174 .25018391431990873403 .25014961748544233121
.25012409979025145940 .25010459927567221704 .25008936137683422092 .25007722780274842928
.25006740876846460387 .25005935068823878962 .25005265617395907303 .25004703396412670908
TAB POINT NR., T PARAMETER, P0 VALUE:
37 2.12616762313974749787 1.30860806716002936077
ALPHA ARRAY:
.18712425728138866038 .52745250689231349209 .51320800714342120463 .50457297073944625114
.50233358069539002528 .50142841672830790227 .50096625881911849326 .50069761025241454209
.50052746808689863026 .50041285906578699257 .50033196642807507755 .50027273778946166295
.50022806764856599647 .50019354424753274641 .50016630991308997996 .50014444712140586812
.50012663014069289254 .50011191855052536817 .50009963021241147362 .50008926056443618872
BETA ARRAY:
.00000000000000000000 .22126689911808243419 .26220461392748462293 .25364796034500688539
.25158182418998413467 .25089854346593273866 .25058169405054566391 .25040775556466149036
.25030180891040851405 .25023244945230620567 .25018455270477622409 .25015008496373364386
.25012445240194844063 .25010487181996376083 .25008957639720576088 .25007740042773348243
.25006754945864479608 .25005946686462379722 .25005275321988114185 .25004711586183038135
TAB POINT NR., T PARAMETER, P0 VALUE:
38 2.18976171609335779067 1.31635280039273866927
ALPHA ARRAY:
.18404426143893057678 .52615842006860967465 .51348948545702027244 .50464019928303212847
.50235558759963497884 .50143857827775318727 .50097182521357300752 .50070099637479791973
.50052968293319154762 .50041438759489363896 .50033306588418255465 .50027355512378182871
.50022869182549835604 .50019403170990681482 .50016669788293862806 .50014476095649180095
.50012688760193078417 .50011213237938802230 .50009980974249253079 .50008941275989354266
BETA ARRAY:
.00000000000000000000 .21887908861178601182 .26231688113790445594 .25371847806644670617
.25159991895052363484 .25090581191304506344 .25058539470388361858 .25040990327847703422
.25030316770519151460 .25023336408487017278 .25018519792167443029 .25015055719158160470
.25012480844097573104 .25010514691392059290 .25008979336298497004 .25007757456917806911
.25006769135276225520 .25005958401209719585 .25005285105999620268 .25004719841702562246
TAB POINT NR., T PARAMETER, P0 VALUE:
39 2.25369795513072679327 1.32405609792082577965
ALPHA ARRAY:
.18101451189354542276 .52478700222399183155 .51377370711607617204 .50470952239858335639
.50237806719772279978 .50144891037193771440 .50097747181201647916 .50070442619352605722
.50053192402088550095 .50041593302875962898 .50033417682564459008 .50027438059466527159
.50022932196445800671 .50019452366413911143 .50016708931684034391 .50014507751649705245
.50012714724355203048 .50011234797899179996 .50009999072947378695 .50008956616790931330
BETA ARRAY:
.00000000000000000000 .21649248911406422515 .26241624634331274892 .25379113620713596600
.25161848261634541137 .25091321589746868975 .25058915249410082055 .25041208016512074017
.25030454325987881137 .25023428916914195926 .25018585006496151051 .25015103423044211468
.25012516794923178426 .25010542458718696821 .25009001229580006597 .25007775024327516844
.25006783446321095383 .25005970214032751696 .25005294970197284771 .25004728163588413878
TAB POINT NR., T PARAMETER, P0 VALUE:
40 2.31797780234432471147 1.33171762952594494359
ALPHA ARRAY:
.17803487285670129375 .52333869831396403257 .51406017296933592862 .50478101568594251112
.50240103486442717165 .50145941706613291865 .50098320019638437068 .50070790046470486728
.50053419175999575469 .50041749561031172457 .50033529940623237316 .50027521430458814409
.50022995813661226510 .50019502016135329517 .50016748425257170560 .50014539683001152762
.50012740908764270425 .50011256536670500702 .50010017318722810547 .50008972079971787772
BETA ARRAY:
.00000000000000000000 .21410832171996551066 .26250188003331092904 .25386595991141864280
.25163753304738824651 .25092075911458376165 .25059296864591237373 .25041428676103295730
.25030593584928327427 .25023522486143828744 .25018650923057894767 .25015151614272242516
.25012553096921822147 .25010570486980645458 .25009023321755319709 .25007792746641136166
.25006797880252520280 .25005982125908726029 .25005304915355816475 .25004736552463789247
TAB POINT NR., T PARAMETER, P0 VALUE:
41 2.38260271411944568598 1.33933710582199235025
ALPHA ARRAY:
.17510516923982031947 .52181402862509434043 .51434834608904072837 .50485475596542588369
.50242450664874327090 .50147010254630401399 .50098901198898203368 .50071141996098985760
.50053648656850594444 .50041907558675213909 .50033643378220016647 .50027605635755909858
.50023060041412104003 .50019552125334168049 .50016788272837466104 .50014571892595805371
.50012767315653271666 .50011278456007820966 .50010035712976702226 .50008987666666078315
BETA ARRAY:
.00000000000000000000 .21172777921223649807 .26257295044111320186 .25394296969081881249
.25165708884266684383 .25092844540030520548 .25059684441862440338 .25041652361525666686
.25030734575386813693 .25023617132096118972 .25018717551608342307 .25015200299179861304
.25012589754405000911 .25010598779222814903 .25009045615042438718 .25007810625516941408
.25006812438338138491 .25005994137825408253 .25005314942257856645 .25004745008957968788
TAB POINT NR., T PARAMETER, P0 VALUE:
42 2.44757414089519897971 1.34691427729019738264
ALPHA ARRAY:
.17222518814289199728 .52021358798998916298 .51463765121385911616 .50493082110704258072
.50244849930533694762 .50148097113470576232 .50099490885378976206 .50071498547203375684
.50053880887255693418 .50042067320964933426 .50033758011233318311 .50027690685914634175
.50023124887015296420 .50019602699257527579 .50016828478296299429 .50014604383359666474
.50012793947279872261 .50011300557684624226 .50010054257124215496 .50009003378018774822
BETA ARRAY:
.00000000000000000000 .20935202477915350509 .26262862504281691607 .25402218099017759570
.25167716935672525663 .25093627873794946158 .25060078110740173857 .25041879128980692308
.25030877325988952811 .25023712870986260623 .25018784902067945846 .25015249484203344023
.25012626771746584232 .25010627338531301011 .25009068111687554818 .25007828662633089854
.25006827121859971441 .25006006250781200242 .25005325051694062985 .25004753533706376467
TAB POINT NR., T PARAMETER, P0 VALUE:
43 2.51289352692387790711 1.35444893326521124923
ALPHA ARRAY:
.16939468037959715049 .51853804490403071580 .51492747427261647644 .50500928983943850030
.50247303032692382038 .50149202729577686059 .50100089249782091592 .50071859780494888375
.50054115910664106527 .50042228873503113095 .50033873855799657047 .50027776591650526205
.50023190357890184089 .50019653743221400358 .50016869045552890043 .50014637158252895267
.50012820805926706797 .50011322843493024197 .50010072952594662940 .50009019215185767535
BETA ARRAY:
.00000000000000000000 .20698219083794921381 .26266807211197500164 .25410360373978957931
.25169779471457299533 .25094426326545692060 .25060478004459522549 .25042109036005364211
.25031021865954335145 .25023809719331072047 .25018852984525284896 .25015299175879460784
.25012664153383873949 .25010656168034030931 .25009090813965456286 .25007846859687886113
.25006841932114602278 .25006018465785262251 .25005335244463194677 .25004762127350639789
TAB POINT NR., T PARAMETER, P0 VALUE:
44 2.57856231002874380920 1.36194090087704103437
ALPHA ARRAY:
.16661336203255518509 .51678814054513960658 .51521716199498501376 .50509024153755306143
.50249811797752861470 .50150327564234991760 .50100696467253580995 .50072225778478484262
.50054353771380197861 .50042392242348020232 .50033990928318553039 .50027863363840664415
.50023256461560341286 .50019705262611710579 .50016909978574967090 .50014670220270248644
.50012847893901677937 .50011345315243971054 .50010091800831652349 .50009035179333967445
BETA ARRAY:
.00000000000000000000 .20461937796405054206 .26269046232685917269 .25418724189410675828
.25171898582486967196 .25095240328298329892 .25060884260113209348 .25042342141511832954
.25031168225111667114 .25023907693955808747 .25018921809240490923 .25015349380847341524
.25012701903818685272 .25010685270901420391 .25009113724179943873 .25007865218400053022
.25006856870413357143 .25006030783857636788 .25005345521372198500 .25004770790538650500
TAB POINT NR., T PARAMETER, P0 VALUE:
45 2.64458192136031566832 1.36939004395364821110
ALPHA ARRAY:
.16388091603245386609 .51496468769769685862 .51550602161528493806 .50517375598797771452
.50252378132656426171 .50151472094219476360 .50101312717531422947 .50072596625502215886
.50054594514584020052 .50042557454023202230 .50034109245457660742 .50027951013526548565
.50023323205655246132 .50019757262885373888 .50016951281379449211 .50014703572441530056
.50012875213538259767 .50011367974767460380 .50010110803293232904 .50009051271641409810
BETA ARRAY:
.00000000000000000000 .20226465392590636172 .26269497042741527336 .25427309295767329894
.25174076439110840177 .25096070326087286827 .25061297018797300965 .25042578505828537081
.25031316433914376884 .25024006812001161236 .25018991386648755665 .25015400105850383486
.25012740027618449980 .25010714650347043433 .25009136844664253495 .25007883740509006960
.25006871938082489178 .25006043206029374226 .25005355883236296063 .25004779523924626018
TAB POINT NR., T PARAMETER, P0 VALUE:
46 2.71095378515121288032 1.37679626188896822130
ALPHA ARRAY:
.16119699375499836644 .51306856958164007664 .51579332067549731100 .50525991313101110262
.50255004028365849804 .50152636812491358936 .50101938185098960879 .50072972407808249574
.50054838186352468873 .50042724535527534333 .50034228824158017696 .50028039551917043124
.50023390597912024270 .50019809749571376269 .50016992958033135933 .50014737217832045434
.50012902767195805572 .50011390823912744954 .50010129961452043180 .50009067493297358864
BETA ARRAY:
.00000000000000000000 .19991905282477119351 .26268077691851604551 .25436114749905424854
.25176315292053215970 .25096916784802599869 .25061716425763967766 .25042818190742854125
.25031466523456704346 .25024107090930443834 .25019061727363925534 .25015451357738201358
.25012778529417342296 .25010744309628314878 .25009160177781486370 .25007902427775137670
.25006887136463365333 .25006055733342660186 .25005366330879072179 .25004788328169171586
TAB POINT NR., T PARAMETER, P0 VALUE:
47 2.77767931846964311049 1.38415948848103473877
ALPHA ARRAY:
.15856121662981413892 .51110073858763686400 .51607828693350053316 .50534879277841694430
.50257691563414299874 .50153822228920717283 .50102573059344809756 .50073353213585612631
.50055084833681054423 .50042893514345528106 .50034349681639416702 .50028128990391384014
.50023458646177227140 .50019862728271872767 .50017035012653410876 .50014771159543066364
.50012930557259860155 .50011413864548549431 .50010149276795461005 .50009083845502413715
BETA ARRAY:
.00000000000000000000 .19758357433841810051 .26264706981571430980 .25445138865362581175
.25178617473050098746 .25097780188067289175 .25062142630581707182 .25043061259545343045
.25031618525490293347 .25024208548536980602 .25019132842182184636 .25015503143468621227
.25012817413917428008 .25010774252047185812 .25009183725925046771 .25007921281980092684
.25006902466912656028 .25006068366850944719 .25005376865132564387 .25004797203939343184
TAB POINT NR., T PARAMETER, P0 VALUE:
48 2.84475993097158852407 1.39147969074479066984
ALPHA ARRAY:
.15597317775566090439 .50906221491914383340 .51636010838241284687 .50544047430590753187
.50260442907510633045 .50155028871053218529 .50103217534729593645 .50073739133024736569
.50055334504506310156 .50043064418457908553 .50034471835405904749 .50028219340502250309
.50023527358408645671 .50019916204663306478 .50017077449408956999 .50014805400712300627
.50012958586142476777 .50011437098563287955 .50010168750825755231 .50009100329468615488
BETA ARRAY:
.00000000000000000000 .19525918306738808730 .26259304642929371346 .25454379161620360752
.25180985395201136501 .25098661039156463677 .25062575787303464005 .25043307777075651263
.25031772472441304904 .25024311202951694778 .25019204742085828951 .25015555470109719484
.25012856685889837416 .25010804480950852402 .25009207491519087564 .25007940304927066451
.25006917930802527734 .25006081107619073343 .25005387486837353671 .25004806151908711199
TAB POINT NR., T PARAMETER, P0 VALUE:
49 2.91219702465179164363 1.39875686770405866362
ALPHA ARRAY:
.15343244351655298446 .50695408514208117118 .51663793338675128739 .50553503631939887847
.50263260325189725951 .50156257284917029664 .50103871810959877978 .50074130258373870609
.50055587247728862062 .50043237276352468215 .50034595303251412298 .50028310613978902585
.50023596742677160271 .50019970184497548290 .50017120272520484180 .50014839944514370294
.50012986856282538829 .50011460527865284806 .50010188385060239437 .50009116946419555715
BETA ARRAY:
.00000000000000000000 .19294680798203926044 .26251791518200782006 .25463832312459842406
.25183421553005231404 .25099559861959182323 .25063016054643106798 .25043557809770163783
.25031928397428070984 .25024415072650908400 .25019277438247134399 .25015608344841907932
.25012896350175962691 .25010834999732478359 .25009231477018963710 .25007959498441094273
.25006933529520838528 .25006093956723419954 .25005398196842656371 .25004815172757424877
TAB POINT NR., T PARAMETER, P0 VALUE:
50 2.97999199359359190353 1.40599104916700789141
ALPHA ARRAY:
.15093855519363919272 .50477750064279986720 .51691087094090071828 .50563255629411326691
.50266146179494908434 .50157508035873048221 .50104536093169682405 .50074526683997443104
.50055843113237180970 .50043412117035206771 .50034720103265516516 .50028402822730389613
.50023666807168627961 .50020024673603057833 .50017163486261469379 .50014874794161297516
.50013015370146086317 .50011484154382998099 .50010208181031427614 .50009133697590486018
BETA ARRAY:
.00000000000000000000 .19064734196834404509 .26242089745549466011 .25473494093530590847
.25185928522046589687 .25100477201983984819 .25063463596160746075 .25043811425711476053
.25032086334279309245 .25024520176464358949 .25019350942032321491 .25015661774960066303
.25012936411688680260 .25010865811831931361 .25009255684911693894 .25007978864369351135
.25006949264471336684 .25006106915252021662 .25005408996006417336 .25004824267172277572
TAB POINT NR., T PARAMETER, P0 VALUE:
51 3.04814622371770571618 1.41318229448931391179
ALPHA ARRAY:
.14849103056796329898 .50253367599498950454 .51717799105512430531 .50573311018564201142
.50269102935677872392 .50158781709510659395 .50105210592109984484 .50074928506436452655
.50056102151932042110 .50043588970041765032 .50034846253839342278 .50028495978848825199
.50023737560185807574 .50020079677886066129 .50017207094958909658 .50014909952902998173
.50013044130226647273 .50011507980065246630 .50010228140287191877 .50009150584228429095
BETA ARRAY:
.00000000000000000000 .18836164147009062707 .26230122945995632383 .25483359329265731383
.25188508958296285405 .25101413627408877720 .25063918580457407992 .25044068694679777063
.25032246317552920126 .25024626533583440200 .25019425265005619463 .25015715767875723472
.25012976875413598848 .25010896920736533765 .25009280117716430479 .25007998404581455561
.25006965137073862372 .25006119984304715581 .25005419885195404332 .25004833435846772813
TAB POINT NR., T PARAMETER, P0 VALUE:
52 3.11666109253003487112 1.42033069132905042625
ALPHA ARRAY:
.14608936550950687396 .50022388723617617675 .51743832527403725787 .50583677201212598172
.50272133164899620193 .50160078912591286394 .50105895524346649905 .50075335824470974835
.50056364415751716950 .50043767865449162560 .50034973773671604832 .50028590094612736985
.50023809010150323949 .50020135203331780457 .50017251102994088369 .50014945424027783561
.50013073139045574192 .50011532006881439923 .50010248264390922236 .50009167607592291063
BETA ARRAY:
.00000000000000000000 .18609052622488071889 .26215816412130545342 .25493421839288233542
.25191165596992722318 .25102369730176411406 .25064381181379606209 .25044329688206234103
.25032408382555388594 .25024734163569674700 .25019500418933432827 .25015770331119288707
.25013017746410333818 .25010928329981827956 .25009304777984937966 .25008018120969778582
.25006981148764552526 .25006133164993277637 .25005430865285303735 .25004842679481191199
TAB POINT NR., T PARAMETER, P0 VALUE:
53 3.18553796886858453519 1.42743635439718345980
ALPHA ARRAY:
.14373303554820536267 .49784947005449397266 .51769086733210833662 .50594361340676445396
.50275239547914091238 .50161400274042055547 .50106591112467251965 .50075748739184874745
.50056629957697923416 .50043948833887848423 .50035102681774798158 .50028685182490489123
.50023881165604672068 .50020191256005611925 .50017295514803354768 .50014981210862870289
.50013102399152385604 .50011556236821811546 .50010268554921688488 .50009184768952975155
BETA ARRAY:
.00000000000000000000 .18383477909107778082 .26199097297960643786 .25503674384466185924
.25193901251062701396 .25103346127134309922 .25064851578234384552 .25044594479628475953
.25032572565361813900 .25024843086363425588 .25019576415788613399 .25015825472342334308
.25013059029813808481 .25010960043152356668 .25009329668302080153 .25008038015449757941
.25006997300996048939 .25006146458441563399 .25005441937160817535 .25004851998782658145
TAB POINT NR., T PARAMETER, P0 VALUE:
54 3.25477821264957478675 1.43449942420736171893
ALPHA ARRAY:
.14142149742292314060 .49541181788648172988 .51793457395034806639 .50605370313992468577
.50278424878714061729 .50162746446001945465 .50107297585297271772 .50076167354032820369
.50056898831862561634 .50044131906554074970 .50035232997481533173 .50028781255143780737
.50023954035214262128 .50020247842054426299 .50017340334878917382 .50015017316774898547
.50013131913125112886 .50011580671897655764 .50010289013474404254 .50009202069593496841
BETA ARRAY:
.00000000000000000000 .18159514596264771786 .26179894809228269886 .25514108612787765057
.25196718809043148165 .25104343461221916925 .25065329956015434132 .25044863144148276871
.25032738902836591746 .25024953322292855765 .25019653267754840956 .25015881199319931033
.25013100730835583054 .25010992063882458654 .25009354791286316192 .25008058089960217648
.25007013595237709677 .25006159865785651017 .25005453101715761682 .25004861394465212502
TAB POINT NR., T PARAMETER, P0 VALUE:
55 3.32438317461281940268 1.44152006582851118152
ALPHA ARRAY:
.13915419060467248655 .49291237992676182328 .51816836577788871236 .50616710661019577044
.50281692068116748464 .50164118104922828763 .50108015178126200961 .50076591774909696552
.50057171093455263486 .50044317115222604825 .50035364740451030053 .50028878325431222165
.50024027627769506524 .50020304967707818601 .50017385567769651406 .50015053745170458942
.50013161683570652416 .50011605314141567608 .50010309641659993228 .50009219510809100362
BETA ARRAY:
.00000000000000000000 .17937233576864806565 .26158140393522681922 .25524715005239706967
.25199621232461935082 .25105362402702494886 .25065816505640920471 .25045135758891549811
.25032907432654774376 .25025064892083142712 .25019730987231115774 .25015937519953037760
.25013142854765211965 .25011024395857080036 .25009380149590205738 .25008078346463692989
.25007030032975823857 .25006173388173986278 .25005464359853165794 .25004870867249876060
TAB POINT NR., T PARAMETER, P0 VALUE:
56 3.39435419606649002588 1.44849846764355573110
ALPHA ARRAY:
.13693053879066050672 .49035265905059843327 .51839112848165951620 .50628388530381144954
.50285044147264264378 .50165515952727845251 .50108744132944101389 .50077022110222524959
.50057446798831785600 .50044504492259761796 .50035497930675769166 .50028976406411991086
.50024101952187949827 .50020362639279412067 .50017431218081920473 .50015090499496628079
.50013191713125123208 .50011630165607686417 .50010330441105557666 .50009237093907376749
BETA ARRAY:
.00000000000000000000 .17716702055395905894 .26133767929464136228 .25535482821886331922
.25202611552634664292 .25106403650441160202 .25066311424203689312 .25045412402970763856
.25033078193324135404 .25025177816865957658 .25019809586836366460 .25015994442270946902
.25013185406971630245 .25011057042812601758 .25009405745900923413 .25008098786946761128
.25007046615713829875 .25006187026767529843 .25005475712485374273 .25004880417864723957
TAB POINT NR., T PARAMETER, P0 VALUE:
57 3.46469260863134431716 1.45543484011738613440
ALPHA ARRAY:
.13474995136604974056 .48773420965051449864 .51860171398681181491 .50640409622195796311
.50288484271011664786 .50166940718029563012 .50109484698689209945 .50077458470965000762
.50057726005523276508 .50044694070636836673 .50035632588488305172 .50029075511349570626
.50024177017516442800 .50020420863168182017 .50017477290480413111 .50015127583241513091
.50013222004454230125 .50011655228371942948 .50010351413454549186 .50009254820208383330
BETA ARRAY:
.00000000000000000000 .17497983563771456148 .26106713914215960477 .25546400048359463193
.25205692866832763319 .25107467933227949984 .25066814915234553112 .25045693157549907590
.25033251224207967366 .25025292118189218059 .25019889079414176554 .25016051974433787096
.25013228392904569750 .25011090008537683494 .25009431582940782785 .25008119413420377415
.25007063344972537163 .25006200782739906715 .25005487160534148842 .25004890047044956022
TAB POINT NR., T PARAMETER, P0 VALUE:
58 3.53539973398449092201 1.46232941457700063873
ALPHA ARRAY:
.13261182483061643646 .48505863538836548474 .51879894186995428918 .50652779127558537639
.50292015721172793870 .50168393157410388696 .50110237131507212501 .50077900970794762672
.50058008772266450013 .50044885883943859276 .50035768734568249001 .50029175653715571624
.50024252832933361536 .50020479645859805218 .50017523789688994199 .50015164999934805292
.50013252560253632786 .50011680504532310109 .50010372560366941906 .50009272691044764778
BETA ARRAY:
.00000000000000000000 .17281137984577787334 .26076917648555098478 .25557453342982863641
.25208868333776809381 .25108556011145196400 .25067327188979394368 .25045978105912127390
.25033426565548641268 .25025407818027122723 .25019969478037633509 .25016110124735084760
.25013271818096005959 .25011123296874124425 .25009457663467770087 .25008140227920217530
.25007080222290351534 .25006214657277557962 .25005498704930772535 .25004899755532969065
TAB POINT NR., T PARAMETER, P0 VALUE:
59 3.60647688360280938014 1.46918244200654453607
ALPHA ARRAY:
.13051554418778337213 .48232758686452266033 .51898160090662054013 .50665501664745468007
.50295641909591493028 .50169874056767679448 .50111001695022849484 .50078349726113519579
.50058295159034698354 .50045079966403748666 .50035906389949422625 .50029276847193641322
.50024329407750872863 .50020538993928035350 .50017570720491571781 .50015202753148343161
.50013283383249320312 .50011705996209057406 .50010393883519407989 .50009290707761875723
BETA ARRAY:
.00000000000000000000 .17066221581351561123 .26044321418710971503 .25568627984768012454
.25212141168407653776 .25109668676978029882 .25067848462690856998 .25046267333530177616
.25033604258491958954 .25025524938790479311 .25020050796014303818 .25016168901604386159
.25013315688161636163 .25011156911717741285 .25009483990276087900 .25008161232507025577
.25007097249223504213 .25006228651579894775 .25005510346616155193 .25004909544078430130
TAB POINT NR., T PARAMETER, P0 VALUE:
60 3.67792535850613244719 1.47599419185977375588
ALPHA ARRAY:
.12846048429379347003 .47954275920611144301 .51914845077371145935 .50678581212127860372
.50299366381002962604 .50171384232725981897 .50111778660624555361 .50078804856150163717
.50058585227070180171 .50045276352886853824 .50036045576027191737 .50029379105683460842
.50024406751417247191 .50020598914036105211 .50017618087732979597 .50015240846496684883
.50013314476197992015 .50011731705545009190 .50010415384605495642 .50009308871717904976
BETA ARRAY:
.00000000000000000000 .16853287035505455138 .26008870674166100941 .25579907822531054413
.25215514635886678374 .25110806757666439319 .25068378960935431919 .25046560928139827889
.25033784345112330571 .25025643503337334378 .25020133046891338173 .25016228313609941704
.25013360008802389863 .25011190857019264115 .25009510566196709026 .25008182429266968300
.25007114427346284619 .25006242766859454888 .25005522086540940467 .25004919413438350746
TAB POINT NR., T PARAMETER, P0 VALUE:
61 3.74974644900024145500 1.48276495089226160999
ALPHA ARRAY:
.12644601116507422480 .47670588957657962056 .51929822390693641189 .50692021037795193826
.50303192815647178902 .50172924534118776544 .50112568307762875809 .50079266483047007083
.50058879038916919609 .50045475078925897426 .50036186314565981451 .50029482443304833762
.50024484873519219953 .50020659412938156252 .50017665896319875646 .50015279283637690620
.50013345841887444169 .50011757634705806763 .50010437065335809620 .50009327184284001385
BETA ARRAY:
.00000000000000000000 .16642383489515992112 .25970514200600158899 .25591275225393481859
.25218992044775399256 .25111971115796883482 .25068918915916777752 .25046858979816381297
.25033966868438810812 .25025763534983916368 .25020216244460710627 .25016288369461454174
.25013404785805972177 .25011225136785250129 .25009537394097940798 .25008203820311995503
.25007131758251276984 .25006257004342061418 .25005533925665614381 .25004929364377162191
TAB POINT NR., T PARAMETER, P0 VALUE:
62 3.82194143441982969733 1.48949502201547900186
ALPHA ARRAY:
.12447148324211395766 .47381875460922524575 .51942962751252392555 .50705823625901800274
.50307125031593273375 .50174495843542040708 .50113370924263451526 .50079734731949286148
.50059176658454954881 .50045676180731336099 .50036328627706980536 .50029586874401868355
.50024563783784402911 .50020720497480696146 .50017714151221657191 .50015318068273114756
.50013377483136962996 .50011783785880174453 .50010458927438194292 .50009345646844401383
BETA ARRAY:
.00000000000000000000 .16433556595984181621 .25929204287152198932 .25602711034941486104
.25222576739343666955 .25113162651130974260 .25069468567816153321 .25047161581054467156
.25034151872482029602 .25025885057515902621 .25020300402764595986 .25016349078012892735
.25013450025048441170 .25011259755079016164 .25009564476886000059 .25008225407780206862
.25007149243549600896 .25006271365266984184 .25005545864960615494 .25004939397666791789
TAB POINT NR., T PARAMETER, P0 VALUE:
63 3.89451158287149334924 1.49618472317467292511
ALPHA ARRAY:
.12253625260843868538 .47088316776770551961 .51954134573168727890 .50719990599768140618
.50311166986730666869 .50176099078981849971 .50114186806655402899 .50080209731098087395
.50059478150935575979 .50045879695207150779 .50036472537976039719 .50029692413547255968
.50024643492083746557 .50020782174604085020 .50017762857471392561 .50015357204149208326
.50013409402797723997 .50011810161280189726 .50010480972657919331 .50009364260796558243
BETA ARRAY:
.00000000000000000000 .16226848572178893357 .25884896887174248375 .25614194519330774419
.25226272090954902049 .25114382302168231094 .25070028165150872651 .25047468826851281578
.25034339402262054354 .25026008095200021713 .25020385536100889679 .25016410448265374559
.25013495732495819952 .25011294716021590148 .25009591817505599061 .25008247193836225247
.25007166884871155856 .25006285850887103551 .25005557905406446670 .25004949514086740267
TAB POINT NR., T PARAMETER, P0 VALUE:
64 3.96745815097687293260 1.50283438625228143875
ALPHA ARRAY:
.12063966616353138767 .46790097663695857919 .51963204195551834017 .50734522641785436551
.50315322780379542597 .50177735195518121599 .50115016260515998774 .50080691611926855299
.50059783583017693220 .50046085659967081481 .50036618068291769839 .50029799075546648196
.50024724008434054928 .50020844451344051058 .50017812020166770128 .50015396695057331855
.50013441603753197769 .50011836763141557433 .50010503202757868079 .50009383027551273093
BETA ARRAY:
.00000000000000000000 .16022298259673356658 .25837551771653329685 .25625703329634931285
.25230081488476186830 .25115631047739340481 .25070597965151727556 .25047780814793460006
.25034529503837223008 .25026132672796003033 .25020471659028874606 .25016472489370116010
.25013541914205744482 .25011330023792682069 .25009619418940542551 .25008269180671576700
.25007184683864869916 .25006300462469076847 .25005570047993788520 .25004959714424160198
TAB POINT NR., T PARAMETER, P0 VALUE:
65 4.04078238361605279749 1.50944435599843333642
ALPHA ARRAY:
.11878106674877992774 .46487406014840471250 .51970036128714836281 .50749419410191432927
.50319596654469932375 .50179405187106455940 .50115859600832542949 .50081180509161653493
.50060093022805380183 .50046294113351321321 .50036765241973845875 .50029906875443135573
.50024805343000554180 .50020907334833236188 .50017861644471064884 .50015436544834578846
.50013474088919562457 .50011863593723888280 .50010525619518728648 .50009401948532827739
BETA ARRAY:
.00000000000000000000 .15819941188687480119 .25787132674488661279 .25637213458745947817
.25234008327660620194 .25116909908625738735 .25071178234160355814 .25048097645147777088
.25034722224333988988 .25026258815568885957 .25020558786375039588 .25016535210631455369
.25013588576329148023 .25011365682631674930 .25009647284214336288 .25008291370505077236
.25007202642198952522 .25006315201293507436 .25005582293723614538 .25004969999473935550
TAB POINT NR., T PARAMETER, P0 VALUE:
66 4.11448551367130033185 1.51601498898989507171
ALPHA ARRAY:
.11695979422577294184 .46180432574374492926 .51974493314716261314 .50764679452805476175
.50323992994235292942 .50181110088439851714 .50116717152382464272 .50081676560925359509
.50060406539886636428 .50046505094443685097 .50036914082751522955 .50030015828521830532
.50024887506099516253 .50020970832302772549 .50017911735614122983 .50015476757364410140
.50013506861246122966 .50011890655310981607 .50010548224739187823 .50009421025179119314
BETA ARRAY:
.00000000000000000000 .15619809646752464438 .25733607428826431438 .25648699203145232640
.25238055999449160026 .25118219949200669197 .25071769248047564265 .25048419420955881169
.25034917611977821234 .25026386549301701465 .25020646933239054187 .25016598621509949143
.25013635725111983198 .25011401696838636167 .25009675416390807275 .25008313765583226604
.25007220761561151621 .25006330068655116470 .25005594643607307971 .25004980370038762367
TAB POINT NR., T PARAMETER, P0 VALUE:
67 4.18856876177127634975 1.52254665261865440002
ALPHA ARRAY:
.11517518650648204918 .45869370648213429802 .51976437401739229601 .50780300117832887613
.50328516328362978283 .50182850976891857142 .50117589250132651477 .50082179908845984276
.50060724205373417733 .50046718643089268482 .50037064614772370814 .50030125950314557550
.50024970508200939101 .50021034951083890525 .50017962298893364695 .50015517336577299410
.50013539923715737111 .50011917950211112584 .50010571020236127823 .50009440258941796818
BETA ARRAY:
.00000000000000000000 .15421932751319087431 .25676948093676209146 .25660133127872128964
.25242227877139254825 .25119562279086146069 .25072371292653646289 .25048746248133283635
.25035115716125204874 .25026515900308539644 .25020736114999904896 .25016662731625544082
.25013683366896982668 .25011438070775350058 .25009703818574735982 .25008336368180609173
.25007239043659015148 .25006345065862917410 .25005607098666780455 .25004990826929230610
TAB POINT NR., T PARAMETER, P0 VALUE:
68 4.26303333603582323974 1.52903972411115644189
ALPHA ARRAY:
.11342658053507729054 .45554415809597564138 .51975729031733791879 .50796277461871750060
.50333171328540472667 .50184628974542464457 .50118476239659130294 .50082690698169318571
.50061046091942983667 .50046934799912614453 .50037216862611233296 .50030237256604653450
.50025054359931284912 .50021099698609559084 .50018013339674806194 .50015558286451390026
.50013573279345248836 .50011945480757323909 .50010594007844825987 .50009459651286399583
BETA ARRAY:
.00000000000000000000 .15226336525937376761 .25617131070060919303 .25671486035024531207
.25246527302367922087 .25120938054819481581 .25072984664251760381 .25049078235572836710
.25035316587296790367 .25026646895448017083 .25020826347322197840 .25016727550760827119
.25013731508125459454 .25011474808866371646 .25009732493912500833 .25008359180600302114
.25007257490220156987 .25006360194240393352 .25005619659934592474 .25005001370963907184
TAB POINT NR., T PARAMETER, P0 VALUE:
69 4.33788043182141525023 1.53549458957904129633
ALPHA ARRAY:
.11171331322131828473 .45235765600104723874 .51972228140660935035 .50812606155279707164
.50337962808332655190 .50186445250287758496 .50119378477588238601 .50083209077876120327
.50061372273880614583 .50047153606336404137 .50037370851279419734 .50030349763431880888
.50025139072076277811 .50021165082416159207 .50018064863394100604 .50015599611013163553
.50013606931185928664 .50011973249307722110 .50010617189419157454 .50009479203692497709
BETA ARRAY:
.00000000000000000000 .15033043979642805000 .25554137205986338765 .25682726936132486738
.25250957569857595364 .25122348481522200518 .25073609670035460921 .25049415495252947536
.25035520277211741417 .25026779562137158677 .25020917646162633318 .25016793088864355442
.25013780155339147965 .25011511915600102707 .25009761445592735261 .25008382205174291027
.25007276102992527496 .25006375455125677237 .25005632328454075659 .25005012002969420174
TAB POINT NR., T PARAMETER, P0 VALUE:
70 4.41311123146740591494 1.54191164310207923749
ALPHA ARRAY:
.11003472232564451105 .44913619226713706423 .51965794270590570283 .50829279385084181480
.50342895721321739594 .50188301022033988905 .50120296332060516410 .50083735200804069710
.50061702827123752768 .50047375104600690107 .50037526606234135303 .50030463487097458220
.50025224655583762604 .50021231110145191242 .50018116875557598761 .50015641314338120133
.50013640882323921534 .50012001258245778558 .50010640566831800891 .50009498917653834513
BETA ARRAY:
.00000000000000000000 .14842075189192353839 .25487951889556144458 .25693823028750544352
.25255521910874067067 .25123794814563275860 .25074246628631493832 .25049758142350791718
.25035726838823334801 .25026913928365709102 .25021010027776657737 .25016859356054069081
.25013829315182086817 .25011549395529890312 .25009790676846997624 .25008405444263893196
.25007294883744688707 .25006390849871735002 .25005645105279456988 .25005022723780544319
TAB POINT NR., T PARAMETER, P0 VALUE:
71 4.48872690404318763768 1.54829128584384750601
ALPHA ARRAY:
.10839014729625781242 .44588177255580565315 .51956286892820925406 .50846288755646473456
.50347975158437881697 .50190197558976342829 .50121230183218589156 .50084269223774732247
.50062037829307625054 .50047599337782690804 .50037684153388157739 .50030578444169209030
.50025311121566626166 .50021297789545016989 .50018169381743430166 .50015683400551471050
.50013675135880702212 .50012029509980635293 .50010664141974447360 .50009518794678471045
BETA ARRAY:
.00000000000000000000 .14653447383803076538 .25418565129604649073 .25704739677617895107
.25260223475347220233 .25125278361207667210 .25074895870638986760 .25050106295360805416
.25035936326355867999 .25027050022710889845 .25021103508725298694 .25016926362620788422
.25013878994402544598 .25011587253275148579 .25009820190950454290 .25008428900260188649
.25007313834266094308 .25006406379846551734 .25005657991475984917 .25005033534240287762
TAB POINT NR., T PARAMETER, P0 VALUE:
72 4.56472860509634337234 1.55463392520054728135
ALPHA ARRAY:
.10677893005864711644 .44259641303233153995 .51943565741103873011 .50863624187318457909
.50353206344404792986 .50192136183962247884 .50122180423720385815 .50084811307725784383
.50062377359812406753 .50047826349817165410 .50037843519119767918 .50030694651486834622
.50025398481305783070 .50021365128472637378 .50018222387602604567 .50015725873828843710
.50013709695013538400 .50012058006947415758 .50010687916758012368 .50009538836288932716
BETA ARRAY:
.00000000000000000000 .14467175032055868486 .25345971623271274977 .25715440400736896504
.25265065312607001530 .25126800482240129373 .25075557739196175444 .25050460076218751819
.25036148795342933479 .25027187874352618266 .25021198105882189146 .25016994119031799110
.25013929199854989701 .25011625493522504169 .25009849991222576211 .25008452575584459189
.25007332956367374496 .25006422046433320904 .25005670988120057489 .25005044435199980088
TAB POINT NR., T PARAMETER, P0 VALUE:
73 4.64111747640194227671 1.56093997398323091862
ALPHA ARRAY:
.10520041575814704057 .43928213725929587943 .51927491153980483016 .50881273813359996820
.50358594633221072620 .50194118275938532698 .50123147459279098848 .50085361617848771638
.50062721499811990052 .50048056185517389499 .50038004730282942275 .50030812126167313022
.50025486746253227175 .50021433134895506625 .50018275898860134697 .50015768738396999354
.50013744562915961766 .50012086751607540575 .50010711893112851193 .50009559044022358082
BETA ARRAY:
.00000000000000000000 .14283269930637637014 .25270170809998164083 .25725886860720238408
.25270050350689276985 .25128362593553183007 .25076232590575815315 .25050819610431675970
.25036364302667121895 .25027327513089206078 .25021293836440786870 .25017062635934526959
.25013979938502105462 .25011664121026966154 .25009880081027849302 .25008476472688635592
.25007352251880625840 .25006437851030636732 .25005684096299352464 .25005055427519361687
TAB POINT NR., T PARAMETER, P0 VALUE:
74 4.71789464571306194074 1.56720984963357693925
ALPHA ARRAY:
.10365395345625418088 .43594097307964097644 .51907924425154173417 .50899223875415585797
.50364145502594378831 .50196145272481203951 .50124131709231357728 .50085920323732685355
.50063070332324422763 .50048288890596752374 .50038167814217815121 .50030930885610428030
.50025575928035150891 .50021501816893383748 .50018329921316180632 .50015811998534563779
.50013779742818247025 .50012115746449048444 .50010736072988977544 .50009579419430649839
BETA ARRAY:
.00000000000000000000 .14101741294606475858 .25191166911494991634 .25736038861754605239
.25275181374168846284 .25129966167686997198 .25076920794810427196 .25051185027214080346
.25036582906601219679 .25027468969353555216 .25021390717921795625 .25017131924160305519
.25014031217416851802 .25011703140613120856 .25009910463776498961 .25008500594055753163
.25007371722659706235 .25006453795052689768 .25005697317112959517 .25005066512066674483
TAB POINT NR., T PARAMETER, P0 VALUE:
75 4.79506122651268373858 1.57344397347323695714
ALPHA ARRAY:
.10213889678154166226 .43257494949737344069 .51884728160755869759 .50917458617880091580
.50369864547242048913 .50198218672405966934 .50125133607135154793 .50086487599513661760
.50063423942264086886 .50048524511690998105 .50038332798761419385 .50031050947504432064
.50025666038455133926 .50021571182660222407 .50018384460847216300 .50015855658572771365
.50013815237987899288 .50012144993986922306 .50010760458356285648 .50009599964080628083
BETA ARRAY:
.00000000000000000000 .13922595848876014796 .25108968957282404302 .25745854352524099030
.25280461000480017877 .25131612735307729707 .25077622736348519591 .25051556459630673666
.25036804666850970352 .25027612274229870023 .25021488768180794708 .25017201994728239065
.25014083043784574681 .25011742557176352322 .25009941142925229084 .25008524942200415829
.25007391370580535084 .25006469879929465761 .25005710651671514551 .25005077689718754037
TAB POINT NR., T PARAMETER, P0 VALUE:
76 4.87261831776703768782 1.57964276998666227020
ALPHA ARRAY:
.10065460453612001409 .42918609356438258083 .51857766642287240440 .50935960181515522900
.50375757470968355235 .50200340038456909904 .50126153601399127728 .50087063624031125005
.50063782416495689591 .50048763096381132913 .50038499712258714431 .50031172329831846575
.50025757089497403312 .50021641240506099968 .50018439523407218660 .50015899722896222709
.50013851051730149834 .50012174496763420871 .50010785051204775815 .50009620679554185879
BETA ARRAY:
.00000000000000000000 .13745837920627407278 .25023590795497328348 .25755289435429722606
.25285891654688778900 .25133303886609599000 .25078338814742914246 .25051934044746065736
.25037029644599472531 .25027757459470905390 .25021588005416083779 .25017272858849163848
.25014135424905164642 .25011782375684089058 .25009972121977975903 .25008549519669268980
.25007411197541398820 .25006486107106947870 .25005724101097336162 .25005088961361123078
TAB POINT NR., T PARAMETER, P0 VALUE:
77 4.95056700368055224715 1.58580666613722165861
ALPHA ARRAY:
.09920044125868509968 .42577642728209108630 .51826906193964898677 .50954708496713514486
.50381830077425304478 .50202511000069993569 .50127192155944870225 .50087648580990716007
.50064145843890143257 .50049004693217022760 .50038668583573910114 .50031295050875404032
[...]
.16292103885108182476 .17326782057542960016 .18361437871574134131 .19395983821661197242
TAB POINT NR., T PARAMETER, P0 VALUE:
659 96.85179030884205531038 3.33237941404261582304
ALPHA ARRAY:
.00516252718102158458 .02581263590510792286 .04646274462919425593 .06711285335328011965
.08776296207734549089 .10841307080091089024 .12906317951707559352 .14971328816328628991
.17036339637315722351 .19101350274700818756 .21166360380980465911 .23231369399677017939
.25296376735785000933 .27361381853208561006 .29426384160065581642 .31491382905828574960
.33556376723205863446 .35621358613096009051 .37686269495956290530 .39750652152703066936
BETA ARRAY:
.00000000000000000000 .00730091595552046725 .01788351874596943044 .02827632590779080455
.03863281592258291528 .04897603312372303363 .05931292161272306350 .06964629937548735845
.07997752729706677029 .09030734359165548790 .10063618415849846398 .11096432399318956236
.12129194565190287496 .13161917489969307556 .14194610143425702355 .15227279166250492811
.16259929586448316755 .17292564637363064822 .18325178483715936146 .19357691677347703068
TAB POINT NR., T PARAMETER, P0 VALUE:
660 97.04308744372579553783 3.33402368672254840337
ALPHA ARRAY:
.00515235049884356189 .02576175249421780943 .04637115448959205149 .06698055648496580104
.08758995848031811035 .10819936047514901619 .12880876246228948846 .14941816437702375080
.17002756584209442134 .19063696542417093591 .21124635958727183393 .23185574270914956141
.25246510881399730783 .27307445251132748562 .29368376782092985806 .31429304718865307704
.33490227730533650721 .35551139372474436115 .37611985853818190418 .39672348559668771483
BETA ARRAY:
.00000000000000000000 .00728652395356434700 .01784826568479979847 .02822058592389616752
.03855666060649449266 .04887948863960683176 .05919600043615559737 .06950900842745996315
.07981987081845384988 .09012932437822507264 .10043780417100621261 .11074558468278956656
.12105284813070377715 .13135972004214328011 .14166628996165888484 .15197262420581373391
.16227877307026738224 .17258476975076990401 .18289056489818733937 .19319543771511391414
TAB POINT NR., T PARAMETER, P0 VALUE:
661 97.23441321626975764048 3.33566577583666125619
ALPHA ARRAY:
.00514221234500479766 .02571106172502398826 .04627991110504317310 .06684876048506184121
.08741760986505808100 .10798645924451065151 .12855530861597293514 .14912415791250224382
.16969300674570705079 .19026185364802745078 .21083069502203760815 .23139952518827103111
.25196833814546198458 .27253712847280666284 .29310589012759580323 .31367461550193721383
.33424329159637024765 .35481185894398758121 .37537982771982157683 .39594336626795909453
BETA ARRAY:
.00000000000000000000 .00727218643890814177 .01781314608971242027 .02816505696840668121
.03848079361009644643 .04878330966741028861 .05907952191650683550 .06937223725516298287
.07966281121841609494 .08995197913594856588 .10024017524050349337 .11052767351054088572
.12081465582522997307 .13110124747533443425 .14138753785336030672 .15167359318589470800
.16195946377829739829 .17224518360328503630 .18253071147666601320 .19281539396217760320
TAB POINT NR., T PARAMETER, P0 VALUE:
662 97.42576749172140182509 3.33730568750275832675
ALPHA ARRAY:
.00513211250855669879 .02566056254278349394 .04618901257701028302 .06671746261123653005
.08724591264543931882 .10777436267907530928 .12830281270441073727 .14883126265220998678
.16935971212268032181 .18988815961344941504 .21041660146515757335 .23094503194138338196
.25147344501567972301 .27200183523612232355 .29253019649642046935 .31305852113045474445
.33358679639965912956 .35411496730448819847 .37464258771837123496 .39516615137420036296
BETA ARRAY:
.00000000000000000000 .00725790311322549025 .01777815922995993384 .02810973788590931657
.03840521335479405366 .04868749420589933776 .05896348363016201540 .06923598301274478922
.07950634522895458473 .08977530417474158379 .10004329325486383122 .11031058594230050074
.12057736377934044874 .13084375182115311947 .14110983930930136196 .15137569238082028923
.16164136134562616399 .17190688087669430569 .18217221719297810090 .19243677841872436305
TAB POINT NR., T PARAMETER, P0 VALUE:
663 97.61715013613061842079 3.33894342781448727067
ALPHA ARRAY:
.00512205078003949162 .02561025390019745809 .04609845702035541818 .06658666014051280973
.08707486326064566961 .10756306638018770909 .12805126949110817405 .14853947252181090654
.16902767506083031948 .18951587557039459073 .21000407032872886167 .23049225354273237593
.25098041916103806707 .27146856169978022767 .29195667498802873596 .31244475129728374328
.33293277810578738008 .35342070441790795966 .37390812380288727414 .39439182854549696333
BETA ARRAY:
.00000000000000000000 .00724367368029553974 .01774330437995239889 .02805462752914564427
.03832991827313389569 .04859204026796409392 .05884788317061160877 .06910024287443903688
.07935046960513513591 .08959929583056354353 .09984715413098325121 .11009431747592629329
.12034096707187352582 .13058722773944372769 .14083318857035791631 .15107891561257097160
.16132445917610309755 .17156985456528366491 .18181507471053823818 .19205958397744016539
TAB POINT NR., T PARAMETER, P0 VALUE:
664 97.80856101634417143487 3.34057900284145312843
ALPHA ARRAY:
.00511202695146949514 .02556013475734747568 .04600824256322544950 .06645635036910282712
.08690445817495455450 .10735256598019051560 .12780067377647283165 .14824878148977556308
.16869688869668402114 .18914499382343593250 .20959309308536835531 .23004118063298803733
.25048925039025280279 .27093729684051821073 .29138531374717847080 .31183329331549310959
.33228122320066510961 .35272905599152653561 .37317642130113702449 .39362038523097647160
BETA ARRAY:
.00000000000000000000 .00722949784598494780 .01770858081921321012 .02799972475894212754
.03825490680870861993 .04849694588049811655 .05873271814830510253 .06896501403439297077
.07919518112489114128 .08942395046519503604 .09965175381453218644 .10987886364100349407
.12010546081634785548 .13033166992768399673 .14055757991799174957 .15078325674666068176
.16100875071998336642 .17123409771178709490 .18145927673620756714 .19168380352445451235
TAB POINT NR., T PARAMETER, P0 VALUE:
665 98.00000000000000000000 3.34221241862932987671
ALPHA ARRAY:
.00510204081632653061 .02551020408163265303 .04591836734693876840 .06632653061224425863
.08673469387752293321 .10714285714215994016 .12755102039749984306 .14795918356701602716
.16836734621506381245 .18877550673129574561 .20918366126769648559 .22959180391867808148
.24999992858375102027 .27040802971263890483 .29081610100204318467 .31122413458737961839
.33163211826477142926 .35204000782794896633 .37244746560279649819 .39285180871956198410
BETA ARRAY:
.00000000000000000000 .00721537531823007678 .01767398783233548281 .02794502844414116164
.03818017741606272198 .04840220908427896688 .05861798619050634613 .06883029370649757246
.07904047658882852056 .08924926446601758364 .09945708827971004351 .10966421999857406143
.11987084016066661548 .13007707312066402138 .14028300767390442045 .15048870969176609707
.16069422947354043584 .17089960340706151934 .18110481602063975061 .19130942994376821176
TAB POINT NR., T PARAMETER, P0 VALUE:
666 98.19146695552177561694 3.34384368119997326507
ALPHA ARRAY:
.00509209216954144517 .02546046084770722580 .04582882952587299901 .06619719820403811686
.08656556688217520500 .10693393555964373614 .12730230422745997761 .14767067280652406374
.16803904084867576530 .18840740670638406146 .20877576646782570547 .22914411417162647260
.24951244369305976118 .26988074944734849872 .29024902506350114599 .31061726260371138577
.33098544997239893841 .35135354582476924845 .37172124216232699327 .39208608615925807962
BETA ARRAY:
.00000000000000000000 .00720130580701934945 .01763952470893883330 .02789053746153273780
.03810572856059918070 .04830782793384984625 .05850368494115020861 .06869607912421924440
.07888635282003243707 .08907523424579539169 .09926315352900199012 .10945038214086851034
.11963710028682438532 .12982343209016817026 .14000946619969426144 .15019526839935925353
.16038088897868128475 .17056636478975645582 .18075168535856354232 .19093645612132078015
TAB POINT NR., T PARAMETER, P0 VALUE:
667 98.38296175211335992117 3.34547279655153190377
ALPHA ARRAY:
.00508218080748376660 .02541090403741883295 .04573962726735389150 .06606835049728826311
.08639707372719334046 .10672579695640194984 .12705452017559101092 .14738324330301312058
.16771196587770224572 .18804068621434186825 .20836940033685434182 .22869810222839788626
.24902678574020109595 .26935544525210245062 .28968407432443194117 .31001266494297885537
.33034120509090127844 .35066965597419571962 .37099773650155658597 .39132320457505946474
BETA ARRAY:
.00000000000000000000 .00718728902437579031 .01760519074362661392 .02783625069578682583
.03803155871848707528 .04821380049740247933 .05838981206070074310 .06856236754043326435
.07873280666387604718 .08890185624245939547 .09906994559293830052 .10923734569104056173
.11940423641061710428 .12957074164466034784 .13973694989651697773 .14990292686334395967
.16006872282256492362 .17023437504597980862 .18039987758900799947 .19056487494872306173
TAB POINT NR., T PARAMETER, P0 VALUE:
668 98.57448425975340455807 3.34709977065855867046
ALPHA ARRAY:
.00507230652794947535 .02536153263974737670 .04565075875154526986 .06593998486334244308
.08622921097510900510 .10651843708615013204 .12680766318679202421 .14709688919256371501
.16738611462939838861 .18767533777358867708 .20796455458436525171 .22825375898974744447
.24854294481709294257 .26883210640995740942 .28912123725901968401 .30941032927065249939
.32969937047994336304 .34998832436264136927 .37027693421198855239 .39056315088556573051
BETA ARRAY:
.00000000000000000000 .00717332468433973254 .01757098523594355394 .02778216703938639841
.03795766637657007905 .04812012485666110895 .05827636522601069761 .06842915622725882051
.07857983498783106510 .08872912691889335677 .09887746052985598507 .10902510630290431057
.11917224378135478247 .12931899662897224356 .13946545320474946475 .14961167911969560896
.15975772463722385491 .16990362740896008745 .18004938559547489686 .19019467932667797951
TAB POINT NR., T PARAMETER, P0 VALUE:
669 98.76603434918985158220 3.34872460947212038404
ALPHA ARRAY:
.00506246913014890479 .02531234565074452393 .04556222217134013445 .06581209869193499058
.08606197521249786420 .10631185173230524394 .12656172824132091117 .14681160465227254135
.16706148047769280659 .18731135395487483534 .20756122097792973902 .22781107542007622422
.24806091108495617235 .26831072227892993455 .28856050242206351188 .30881024333844795792
.32905993309075548298 .34930953717028360291 .36955882095685899203 .38980591191838341539
BETA ARRAY:
.00000000000000000000 .00715941250295170640 .01753690749033384490 .02772828539256115832
.03788405003227591355 .04802679910676770813 .05816334213018249996 .06829644247589577768
.07842743468128031518 .08855704276272220491 .09868569442566292097 .10881365966067415179
.11894111768157722630 .12906819192399485187 .13919497060365715062 .14932151924610472538
.15944788809918890161 .16957411515870611361 .17970020230606340725 .18982586216811184931
TAB POINT NR., T PARAMETER, P0 VALUE:
670 98.95761189193470386272 3.35034731891990888969
ALPHA ARRAY:
.00505266841469474939 .02526334207347374691 .04547401573225273539 .06568468939103093347
.08589536304977572137 .10610603670773382829 .12631671035449458154 .14652738389990470666
.16673805684279185846 .18694872738083783134 .20715939134261589355 .22737004254689161993
.24758067477372700134 .26779128229136093138 .28800185844829420657 .30821239498359741040
.32842287996539038705 .34863328067059549625 .36884338247296211426 .38905147442439008177
BETA ARRAY:
.00000000000000000000 .00714555219823548025 .01750295681609959963 .02767460466322185628
.03781070819352660974 .04793382135616821539 .05805074048243048191 .06816422359646289855
.07827560265533195543 .08838560028610226457 .09849464339360408568 .10860300147870702485
.11871085342677229826 .12881832244637274218 .13892549661106430183 .14903244136162364470
.15913920692911682797 .16924583162166415638 .17935232069355063109 .18945841640103614365
TAB POINT NR., T PARAMETER, P0 VALUE:
671 99.14921676025855390435 3.35196790490634921623
ALPHA ARRAY:
.00504290418359020567 .02521452091795102833 .04538613765231184149 .06555775438667182667
.08572937112099691550 .10590098785450297032 .12607260457639248587 .14624422119354981886
.16641583719078830158 .18658745072556351415 .20675905756050237667 .22693065146027368370
.24710222618147589129 .26727377595328712625 .28744529405169836647 .30761677212812873914
.32778819823598535278 .34795954122985342076 .36813060457226354996 .38829982509093467064
BETA ARRAY:
.00000000000000000000 .00713174349018128930 .01746913252735977146 .02762112376689533660
.03773763937864976333 .04784118972650003037 .05793855800794462966 .06803249691783785717
.07812433584263575900 .08821479602551380748 .09830430357403038001 .10839312750124751382
.11848144636509729788 .12856938314820171554 .13865702578302797959 .14874443962631707345
.15883167489142160001 .16891877017037390818 .17900573377543283590 .18909233497116000285
TAB POINT NR., T PARAMETER, P0 VALUE:
672 99.34084882718542530711 3.35358637331270951205
ALPHA ARRAY:
.00503317624021721630 .02516588120108608144 .04529858616195493661 .06543129112282292456
.08556399608365446933 .10569670104363342238 .12582940599156271603 .14596211083128106303
.16609481503327334450 .18622751671415112588 .20636021157019643127 .22649289331234610205
.24662555567383149944 .26675819284381800117 .28689079802484843274 .30702336277815069884
.32715587512402766257 .34728830530662187659 .36742047314331672616 .38755095055404036835
BETA ARRAY:
.00000000000000000000 .00711798610072921025 .01743543394300943036 .02756784162666014703
.03766484211629056119 .04774890235248048697 .05782679244775551808 .06790125978749864254
.07797363119720099187 .08804462654155540648 .09811467113416945972 .10818403350217516224
.11825289187710276345 .12832136901672908808 .13838955271351482708 .14845750824091565038
.15852528579390840196 .16859292422312282045 .17866043461393000971 .18872761084427051002
TAB POINT NR., T PARAMETER, P0 VALUE:
673 99.53250796648745790662 3.35520272999720878879
ALPHA ARRAY:
.00502348438932483980 .02511742194662419896 .04521135950392354764 .06530529706122198815
.08539923461848237573 .10549317217485536941 .12558710971873124969 .14568104715081792434
.16577498392695284940 .18586891812228298682 .20596284536635704744 .22605675931675283133
.24615065368341079035 .26624452261451939240 .28633835923823986687 .30643215502314550717
.32652589793962528172 .34661955945121974855 .36671297415249993549 .38680483740967657944
BETA ARRAY:
.00000000000000000000 .00710427975375271362 .01740186038667947467 .02751475717308283750
.03759231494532474878 .04765695738179651941 .05771544155860068977 .06777050957136665856
.07782348569421623870 .08787508841874048931 .09792574226789901853 .10797571528475449097
.11802518537545922821 .12807427507405718037 .13812307203408131275 .14817164144647318476
.15822003348741117366 .16826828724360003534 .17831641631595790887 .18836423700839855343
TAB POINT NR., T PARAMETER, P0 VALUE:
674 99.72419405267972081219 3.35681698079512488598
ALPHA ARRAY:
.00501382843701773030 .02506914218508865145 .04512445593315956160 .06517976968122952081
.08523508342925975217 .10529039717636650192 .12534571091051394180 .14540102452919209785
.16545633747326716083 .18551164777579824636 .20556695099922263333 .22562224074813967772
.24567751070925453213 .26573275498880291196 .28578796663963457674 .30584313703526791474
.32589825408078199689 .34595329030516931404 .36600809364508775538 .38606147222416007784
BETA ARRAY:
.00000000000000000000 .00709062417504237159 .01736841118669672353 .02746186934415486063
.03752005641477241991 .04756535297499537080 .05760450311279229658 .06764024365365130652
.07767389632987093099 .08770617826529581456 .09773751319552221319 .10776816868138737807
.11779832230468655828 .12782809637684960823 .13785757841355699347 .14788683352402710681
.15791591186543321399 .16794485274054981299 .17797367203307014382 .18800220647578555274
TAB POINT NR., T PARAMETER, P0 VALUE:
675 99.91590696101508228821 3.35842913151890205648
ALPHA ARRAY:
.00500420819074472941 .02502104095372364700 .04503787371670255305 .06505470647968046355
.08507153924261690363 .10508837200459244678 .12510520475313132294 .14512203738241665405
.16513886931801463938 .18515569855027078803 .20517252057414328902 .22518932894164092950
.24520611731626829429 .26522287976132131873 .28523960925341072897 .30525629706865092338
.32527293103267743232 .34528948460063038441 .36530581774617071969 .38532084154374339787
BETA ARRAY:
.00000000000000000000 .00707701909228972451 .01733508567604439821 .02740917708523008722
.03744806508371264661 .04747408730537636679 .05749397489808603105 .06751045943669608215
.07752486012117861457 .08753789271296191160 .09754998016354527711 .10756138955336785201
.11757229814088592834 .12758282801604043573 .13759306655773086338 .14760307879426220395
.15761291486379096559 .16762261426742492670 .17763219496137324636 .18764151228466596935
TAB POINT NR., T PARAMETER, P0 VALUE:
676 100.10764656747903700307 3.36003918795825734126
ALPHA ARRAY:
.00499462345928757419 .02497311729643787089 .04495161113358815548 .06493010497073739796
.08490859880784335740 .10488709264394963361 .12486558646612629719 .14484408016515856798
.16482257315097902291 .18480106337059142590 .20477954625111783555 .22475801529237120818
.24473646413466912874 .26471488679737003577 .28469327617991916053 .30467162345871840026
.32464991636695242223 .34462812915982186258 .36460613266143622938 .38458293190344534723
BETA ARRAY:
.00000000000000000000 .00706346423507131156 .01730188319232300518 .02735667934896295707
.03737633952119897703 .04738315855888378955 .05738385471755139033 .06738115434082623743
.07737637410580201383 .08737022841679554930 .09736313944445739501 .10735537379063937782
.11734710839147452226 .12733846511654628524 .13732953120904089069 .14732037161717775502
.15731103646026113415 .16730156542204050697 .17729197834141747988 .18728214750087958807
TAB POINT NR., T PARAMETER, P0 VALUE:
677 100.29941274878470380827 3.36164715588028753096
ALPHA ARRAY:
.00498507405274970906 .02492537026374854525 .04486566647474736872 .06480596268574510152
.08474625889669766602 .10468655510661034547 .12462685130208444045 .14456714737041426476
.16450744270556022026 .18444773521055394971 .20438802024433510849 .22432829125492200039
.24426854185943734778 .26420876603229417980 .28414895659484570873 .30408910462150387674
.32402919774099917636 .34396921089443174372 .36390902467782159913 .38384772983517417248
BETA ARRAY:
.00000000000000000000 .00704995933483284839 .01726880307771157958 .02730437509524719937
.03730487830617571162 .04729256493400073853 .05727414038944313527 .06725232580419784560
.07722843534187970742 .08720318205497402432 .09717698733651260514 .10715011731155437922
.11712274859492267753 .12709500283698109913 .13706696714626641341 .14703870639175771225
.15701027067423079795 .16698169984622825800 .17695301545806538535 .18692410521932604252
TAB POINT NR., T PARAMETER, P0 VALUE:
678 100.49120538236766719820 3.36325304102957397300
ALPHA ARRAY:
.00497555978254521690 .02487779891272608443 .04478003804290693862 .06468227717308665146
.08458451630321923550 .10448675543227027137 .12438899454635727700 .14429123352918862005
.16419347175840903639 .18409570709244557782 .20399793482172013574 .22390014834286355048
.24380234124977413967 .26370450747090190390 .28360663974858032249 .30350872905297647086
.32341076289725741499 .34331271680501829411 .36321448016405123244 .38311522187519298280
BETA ARRAY:
.00000000000000000000 .00703650412487357333 .01723584467892934128 .02725226329115520572
.03723368002739507090 .04720230464164412136 .05716482974707411815 .06712397128264847337
.07708104090785464948 .08703675032860153330 .09699152016351402388 .10694561606263632134
.11689921432049382865 .12685243636937393884 .13680536918422380995 .14675807755564437874
.15671061156635101304 .16666301122549184733 .17661529964034082098 .18656737856527419814
