************************************************************************
* This file is part of OpenMolcas.                                     *
*                                                                      *
* OpenMolcas is free software; you can redistribute it and/or modify   *
* it under the terms of the GNU Lesser General Public License, v. 2.1. *
* OpenMolcas is distributed in the hope that it will be useful, but it *
* is provided "as is" and without any express or implied warranties.   *
* For more details see the full text of the license in the file        *
* LICENSE or in <http://www.gnu.org/licenses/>.                        *
************************************************************************

Data tables from genab.py
=========================

Each table gives the recursion parameters ALPHA(K), BETA(K) and the
zeroth order polynomial P0 needed to generate Rys polynomials up to
order MAXDEG for different values of the continuous parameter T.
NTAB1 and NTAB2 are the first and last table index. PRECIS is the
accuracy to which the values were computed. For each table with index
ITAB, the corresponding T value is:

  T = (sqrt(72900-(260+ITAB)*ITAB)+ITAB-270)/10

and the inverse formula for later interpolation:

  ITAB = 5*T+200*T/(14+T)

NTAB1, NTAB2, MAXDEG:
-2 678 19
PRECIS
1.0e-20
TAB POINT NR., T VALUE, P0 VALUE:
-2 -0.10313671289608473181 0.98272361269943479712
ALPHA ARRAY:
0.34258981436711487207 0.52128275700717053596 0.50631932414961732692 0.50297885593084804063
0.50173230525284807481 0.50113267222114919682 0.50079841139983890173 0.50059307920148731901
0.50045792801614922160 0.50036424738662371623 0.50029664550378565015 0.50024626484372221709
0.50020771398866739006 0.50017755818572468325 0.50015352488943677193 0.50013406177694943508
0.50011807917173330495 0.50010479389151551418 0.50009363130924627449 0.50008416207955550530
BETA ARRAY:
0.00000000000000000000 0.30099435197422719680 0.25533780445071803418 0.25209223323143963898
0.25111484453758238068 0.25069244905975809986 0.25047183897942283361 0.25034215971833214644
0.25025947930243566180 0.25020353574318204160 0.25016392317800086260 0.25013484903954172536
0.25011287975517948271 0.25009587477954416397 0.25008244321525527246 0.25007164939663141884
0.25006284508365149349 0.25005556964336154107 0.25004948846105580199 0.25004435371608967112
TAB POINT NR., T VALUE, P0 VALUE:
-1 -0.05170985071329873878 0.99135962178050488219
ALPHA ARRAY:
0.33795224225811229898 0.52256610652182654349 0.50640506183039424283 0.50300432721318045904
0.50174326011949333011 0.50113838025555525200 0.50080176207226783156 0.50059521359492422767
0.50045937129456601887 0.50036526887491924651 0.50029739497493877277 0.50024683101013272294
0.50020815212328130452 0.50017790418777680662 0.50015380289964725611 0.50013428851518146363
0.50011826651591215447 0.50010495046816785991 0.50009376350610906227 0.50008427470840832498
BETA ARRAY:
0.00000000000000000000 0.29959164877392586070 0.25544002684705670921 0.25211408199187373465
0.25112294040879295545 0.25069633129837973258 0.25047399937132081972 0.25034348538662368672
0.25026035122697300708 0.25020413980223896992 0.25016435890650798677 0.25013517366836316776
0.25011312809728343939 0.25009606900229388774 0.25008259797935024655 0.25007177471311883151
0.25006294797798619349 0.25005565516375693749 0.25004956031068159239 0.25004441466137020365
TAB POINT NR., T VALUE, P0 VALUE:
0 0.00000000000000000000 1.0000000000000000000
ALPHA ARRAY:
0.33333333333333333333 0.52380952380952380952 0.50649350649350649351 0.50303030303030303030
0.50175438596491228070 0.50114416475972540046 0.50080515297906602254 0.50059737156511350060
0.50046082949308755760 0.50036630036630036630 0.50029815146094215861 0.50024740227610094013
0.50020859407592824364 0.50017825311942959002 0.50015408320493066256 0.50013451708366962604
0.50011845534233593935 0.50010510826150935463 0.50009389671361502347 0.50008438818565400844
BETA ARRAY:
0.00000000000000000000 0.29814239699997195952 0.25555062599997596530 0.25213645282964960092
0.25113117642528998771 0.25070026927498254243 0.25047618705348690719 0.25034482628313658587
0.25026123245234939152 0.25020474993119370004 0.25016479880253434373 0.25013550127561637955
0.25011337863827434902 0.25009626489257105207 0.25008275403684365451 0.25007190105225806669
0.25006305169438484899 0.25005574135455315302 0.25004963271397901384 0.25004447606906050496
TAB POINT NR., T VALUE, P0 VALUE:
1 0.05199436034372577688 1.00864298699425446057
ALPHA ARRAY:
0.32873465461302349807 0.52501109036961420232 0.50658489259793476500 0.50305679843579852264
0.50176568657458431953 0.50115002715010740882 0.50080858477695117911 0.50059955346122687485
0.50046230281602472765 0.50036734198910300024 0.50029891504694110236 0.50024797870062728622
0.50020903988896429422 0.50017860501199579697 0.50015436582901516158 0.50013474750077815587
0.50011864566547883405 0.50010526728313075804 0.50009403094117640281 0.50008450251903083900
BETA ARRAY:
0.00000000000000000000 0.29664726368666859408 0.25566941077382767221 0.25215936609023924206
0.25113955610369353189 0.25070426410828670218 0.25047840249823892992 0.25034618264395953325
0.25026212311076047319 0.25020536621038768461 0.25016524291803117363 0.25013583189656773169
0.25011363140304733750 0.25009646246852379449 0.25008291140132572889 0.25007202842446095440
0.25006315624098198487 0.25005582822221441003 0.25004970567616194212 0.25004453794342152262
TAB POINT NR., T VALUE, P0 VALUE:
2 0.10427475328037903139 1.01728683165179350310
ALPHA ARRAY:
0.32415775415740250991 0.52616890769197239903 0.50667945260866045540 0.50308382915498420560
0.50177716584571353291 0.50115596887699793075 0.50081205813621135672 0.50060175963888501940
0.50046379147112953845 0.50036839387366112460 0.50029968581931836042 0.50024856034351862816
0.50020948960529323942 0.50017895989717306135 0.50015465079590724016 0.50013497978507752783
0.50011883749997109857 0.50010542754474314550 0.50009416619829969660 0.50008461771635199641
BETA ARRAY:
0.00000000000000000000 0.29510696850112553530 0.25579617202599101211 0.25218284385412116405
0.25114808308238399789 0.25070831694636635310 0.25048064618833336838 0.25034755470977904774
0.25026302333672875466 0.25020598872146151274 0.25016569130573035609 0.25013616556698024510
0.25011388641682828215 0.25009666174852892101 0.25008307008654980629 0.25007215684025877818
0.25006326162600161588 0.25005591577327330319 0.25004977920249739681 0.25004460028875614277
TAB POINT NR., T VALUE, P0 VALUE:
3 0.15684270348992456190 1.02592979446697033256
ALPHA ARRAY:
0.31960415852723856281 0.52728110035582352773 0.50677741638503585195 0.50311141164022305580
0.50178882779154930921 0.50116199142555443360 0.50081557374104912434 0.50060399046030181247
0.50046529566966450225 0.50036945615234356179 0.50030046386571514866 0.50024914726540096869
0.50020994326837458085 0.50017931780704915194 0.50015493812989526462 0.50013521395534693164
0.50011903086060083412 0.50010558905817917743 0.50009430249458658511 0.50008473378550625111
BETA ARRAY:
0.00000000000000000000 0.29352228273455352772 0.25593068229087334693 0.25220690995247754524
0.25115676112745484511 0.25071242896762905545 0.25048291861725083677 0.25034894272598861982
0.25026393326715290091 0.25020661754737990994 0.25016614401915819691 0.25013650232312169984
0.25011414370517883009 0.25009686275119514182 0.25008323010643448523 0.25007228631030375511
0.25006336785775828605 0.25005600401433154429 0.25004985329830608429 0.25004466310940959177
TAB POINT NR., T VALUE, P0 VALUE:
4 0.20969973722197434040 1.03457014986634465957
ALPHA ARRAY:
0.31507537029234873170 0.52834581910674447336 0.50687901054139305202 0.50313956312778429731
0.50180067654593245062 0.50116809631684439900 0.50081913228993625148 0.50060624629443247158
0.50046681562647367573 0.50037052895959157342 0.50030124927505255747 0.50024973952773236469
0.50021040092223169595 0.50017967877410731879 0.50015522785555309435 0.50013545003057677846
0.50011922576231575977 0.50010575183539438225 0.50009443983973487397 0.50008485073445866440
BETA ARRAY:
0.00000000000000000000 0.29189402815299018181 0.25607269548174649703 0.25223158997830641337
0.25116559413913834359 0.25071660138183654005 0.25048522028949106288 0.25035034694280095940
0.25026485304135830033 0.25020725277245730671 0.25016660111264950099 0.25013684220177289871
0.25011440329400150467 0.25009706549536635937 0.25008339147506581615 0.25007241684537053611
0.25006347494465812119 0.25005609295206071552 0.25004992796896294617 0.25004472640976984147
TAB POINT NR., T VALUE, P0 VALUE:
5 0.26284738214527127785 1.04320618850051315030
ALPHA ARRAY:
0.31057286559704390031 0.52936124390311184833 0.50698445777969290043 0.50316830169614110626
0.50181271636808422985 0.50117428510893348520 0.50082273449597930257 0.50060852751712565735
0.50046835156005540675 0.50037161243195727222 0.50030204213755339371 0.50025033719281608244
0.50021086261146013324 0.50018004283123172299 0.50015551999774374733 0.50013568802997124016
0.50011942222022501048 0.50010591588846845337 0.50009457824353944457 0.50008496857125129442
BETA ARRAY:
0.00000000000000000000 0.29022307571074202608 0.25622194661187016620 0.25225691129259665690
0.25117458615872598694 0.25072083543116902396 0.25048755172087774041 0.25035176761536345415
0.25026578280114890578 0.25020789448238399091 0.25016706264136193821 0.25013718524023608887
0.25011466520954490185 0.25009727000012500987 0.25008355420669952422 0.25007254845635772693
0.25006358289519989456 0.25005618259320303135 0.25005000321989771341 0.25004479019426801817
TAB POINT NR., T VALUE, P0 VALUE:
6 0.31628716719447152305 1.05183621949423594410
ALPHA ARRAY:
0.30609809179130007254 0.53032558692344773562 0.50709397619408774197 0.50319764632557797133
0.50182495164765688596 0.50118055939801443429 0.50082638108729653827 0.50061083451127967692
0.50046990369263683422 0.50037270670814287386 0.50030284254476445983 0.50025094032381399511
0.50021132838123604847 0.50018041001171295143 0.50015581458162311849 0.50013592797295082226
0.50011962024960095667 0.50010608122960656014 0.50009471771589321376 0.50008508730400390824
BETA ARRAY:
0.00000000000000000000 0.28851034413049707625 0.25637815153639759278 0.25228290302520276582
0.25118374137600476485 0.25072513239133552558 0.25048991343887365162 0.25035320500387694681
0.25026672269086039369 0.25020854276425285971 0.25016752866129070958 0.25013753147634354495
0.25011492947840897837 0.25009747628479545923 0.25008371831576326556 0.25007268115428943001
0.25006369171797610601 0.25005627294457210917 0.25005007905659546617 0.25004485446737881528
TAB POINT NR., T VALUE, P0 VALUE:
7 0.37002062241422414757 1.06045857264787683828
ALPHA ARRAY:
0.30165246513614673361 0.53123709552634081237 0.50720777854735139471 0.50322761695896401190
0.50183738691006512178 0.50118692081957861152 0.50083007280740654031 0.50061316766700291709
0.50047147225025019086 0.50037381192904081022 0.50030365058957928036 0.50025154898476022757
0.50021179827732478428 0.50018078034925361814 0.50015611163264375183 0.50013616987915497090
0.50011981986588104589 0.50010624787114067327 0.50009485826678810281 0.50008520694091469995
BETA ARRAY:
0.00000000000000000000 0.28675679835471149887 0.25654100671660109330 0.25230959607004562942
0.25119306413722997971 0.25072949357273279835 0.25049230598290647768 0.25035465937371794445
0.25026767285741468083 0.25020919770658678707 0.25016799922928352105 0.25013788094846631745
0.25011519612755043370 0.25009768436894745452 0.25008388381685891738 0.25007281495031680787
0.25006380142167407481 0.25005636401305374872 0.25005015548459719936 0.25004491923362090974
TAB POINT NR., T VALUE, P0 VALUE:
8 0.42404927880054837396 1.06907160058338676482
ALPHA ARRAY:
0.29723736859141909938 0.53209405515489305587 0.50732607151921673931 0.50325823456353150266
0.50185002682211924460 0.50119337104963217464 0.50083381041562899468 0.50061552738177864236
0.50047305746281095999 0.50037492823777472644 0.50030446636626128643 0.50025216324057505416
0.50021227234608959651 0.50018115387797405380 0.50015641117655866724 0.50013641376844471451
0.50012002108466966674 0.50010641582553090459 0.50009499990631601591 0.50008532749026101488
BETA ARRAY:
0.00000000000000000000 0.28496344787349759633 0.25671018900799671393 0.25233702307425558997
0.25120255895365460894 0.25073392032165569936 0.25049472990470573434 0.25035613099556437718
0.25026863345037583925 0.25020985939936662366 0.25016847440305587254 0.25013823369552315005
0.25011546518428818777 0.25009789427239963214 0.25008405072476490284 0.25007294985571966806
0.25006391201507704635 0.25005645580560672062 0.25005023250950039408 0.25004498449755738232
TAB POINT NR., T VALUE, P0 VALUE:
9 0.47837466813950984341 1.07767368082830935213
ALPHA ARRAY:
0.29285414969362714058 0.53289479217795814015 0.50744905492675597686 0.50328952119348092706
0.50186287619798167574 0.50119991180595899093 0.50083759468749808708 0.50061791406063429797
0.50047465956419793955 0.50037605577974138461 0.50030528997046746927 0.50025278315707905489
0.50021275063450053008 0.50018153063241808533 0.50015671323942524294 0.50013665966090534076
0.50012022392174003548 0.50010658510536686167 0.50009514264466982819 0.50008544896040008005
BETA ARRAY:
0.00000000000000000000 0.28313134493483363535 0.25688535547398739565 0.25236521842086434129
0.25121223051063436039 0.25073841402156201915 0.25049718576865129235 0.25035762014552502828
0.25026960462200745197 0.25021052793405984620 0.25016895424120667012 0.25013858975698956993
0.25011573667630895644 0.25009810601522308362 0.25008421905443855113 0.25007308588190807033
0.25006402350706531297 0.25005654832926356390 0.25005031013695959506 0.25004505026379614169
TAB POINT NR., T VALUE, P0 VALUE:
10 0.53299832284319879292 1.08626321783157192126
ALPHA ARRAY:
0.28850411853125317542 0.53363767666079361474 0.50757692091704119837 0.50332150005321507479
0.50187594000546963831 0.50120654484943254813 0.50084142641518898461 0.50062032811631546326
0.50047627879233526788 0.50037719470265349779 0.50030612149927251384 0.50025340880100753583
0.50021323319014344760 0.50018191064755890703 0.50015701784760915476 0.50013690757684910935
0.50012042839303610574 0.50010675572336901737 0.50009528649214438355 0.50008557135976974096
BETA ARRAY:
0.00000000000000000000 0.28126158264347447149 0.25706614322668253537 0.25239421820464325436
0.25122208367732652743 0.25074297609439502276 0.25049967415213396520 0.25035912710527276299
0.25027058652733145280 0.25021120340364987403 0.25016943880323416925 0.25013894917290715475
0.25011601063167292685 0.25009831961774498042 0.25008438882101849352 0.25007322304042395625
0.25006413590661734913 0.25005664159113139293 0.25005038837268699404 0.25004511653699035247
TAB POINT NR., T VALUE, P0 VALUE:
11 0.58792177578301441930 1.09483864490514315374
ALPHA ARRAY:
0.28418854582430500849 0.53432112505814136626 0.50770985313243367456 0.50335419556098500696
0.50188922337272790876 0.50121327198537924374 0.50084530640795789887 0.50062276996946460615
0.50047791538927646802 0.50037834515658351862 0.50030696105119342418 0.50025404024002521957
0.50021372006122921376 0.50018229395880504528 0.50015732502778837306 0.50013715753681800127
0.50012063451467450157 0.50010692769239009450 0.50009543145913750227 0.50008569469688920468
BETA ARRAY:
0.00000000000000000000 0.27935529295546129929 0.25725216929658818679 0.25242406020067739832
0.25123212351699951007 0.25074760800196718972 0.25050219564592867110 0.25036065216218168799
0.25027157932418849579 0.25021188590266607122 0.25016992814955225748 0.25013931198389298073
0.25011628707881953486 0.25009853510055225880 0.25008456003982709596 0.25007336134294280170
0.25006424922281096117 0.25005673559839271369 0.25005046722245301935 0.25004518332183886725
TAB POINT NR., T VALUE, P0 VALUE:
12 0.64314656012026114944 1.10339842608598755470
ALPHA ARRAY:
0.27990866111442687607 0.53494360282317567538 0.50784802584896942670 0.50338763341271013625
0.50190273159529657832 0.50122009506499558600 0.50084923549259624768 0.50062524004880479527
0.50047956960129056880 0.50037950729400840755 0.50030780872621465235 0.50025467754274121181
0.50021421129660303889 0.50018268060200641846 0.50015763480695721847 0.50013740956158650520
0.50012084230294647436 0.50010710102541646598 0.50009557755615099872 0.50008581898035978946
BETA ARRAY:
0.00000000000000000000 0.27741364457560536599 0.25744303053289594865 0.25245478382525699993
0.25124235529796841391 0.25075231124740889228 0.25050475085458070212 0.25036219560946837925
0.25027258317329990087 0.25021257552721445305 0.25017042234150708515 0.25013967823114925576
0.25011656604657334663 0.25009875248449536599 0.25008473272637292907 0.25007350080127529271
0.25006436346482445194 0.25005683035830624965 0.25005054669208693164 0.25004525062308666262
TAB POINT NR., T VALUE, P0 VALUE:
13 0.69867420913406401138 1.11194105791312413575
ALPHA ARRAY:
0.27566565107131001059 0.53550362692621104835 0.50799160308843635549 0.50342184064571321040
0.50191647014359980832 0.50122701598682199951 0.50085321451389945646 0.50062773879132853216
0.50048124167895036327 0.50038068126985540673 0.50030866462581374310 0.50025532077872425022
0.50021470694575398491 0.50018307061346049409 0.50015794721243047752 0.50013766367216444167
0.50012105177431988391 0.50010727573556957058 0.50009572479379170910 0.50008594421886568090
BETA ARRAY:
0.00000000000000000000 0.27543784076575071746 0.25763830353612934757 0.25248643008866144999
0.25125278450517045424 0.25075708737668601816 0.25050734039680566131 0.25036375774633732147
0.25027359823833122454 0.25021327237500911631 0.25017092144139405276 0.25014004795647314201
0.25011684756415004674 0.25009897179069206891 0.25008490689635327607 0.25007364142736902497
0.25006447864193780046 0.25005692587820777733 0.25005062678747742597 0.25004531844552527928
TAB POINT NR., T VALUE, P0 VALUE:
14 0.75450625604661180976 1.12046507111499964685
ALPHA ARRAY:
0.27146065792055294360 0.53599976827753830728 0.50814073770487462201 0.50345684570208865453
0.50193044467088256807 0.50123403669827610023 0.50085724433515096459 0.50063026664249187214
0.50048293187722286684 0.50038186724154884584 0.50030952885298750683 0.50025597001851824199
0.50021520705882463716 0.50018346402991854495 0.50015826227184757924 0.50013791988979982557
0.50012126294544120410 0.50010745183610734461 0.50009587318277252966 0.50008607042117469469
BETA ARRAY:
0.00000000000000000000 0.27342911707200203950 0.25783754462493370416 0.25251904153940532730
0.25126341685239196382 0.25076193798019082445 0.25050996490590365784 0.25036533887813070832
0.25027462468595750546 0.25021397654540441356 0.25017142551247516417 0.25014042120226677234
0.25011713166116253511 0.25009919304053132666 0.25008508256565667948 0.25007378323331022754
0.25006459476353385697 0.25005702216551097178 0.25005070751457324022 0.25004538679399326631
TAB POINT NR., T VALUE, P0 VALUE:
15 0.81064423384573835054 1.12896903220281219320
ALPHA ARRAY:
0.26729477799750346195 0.53643065404925233561 0.50829557044637718338 0.50349267849139953173
0.50194466102162330564 0.50124115919724848907 0.50086132583862202855 0.50063282405641400908
0.50048464045556203975 0.50038306536905800763 0.50031040151227873378 0.50025662533365809656
0.50021571168662094554 0.50018386088859200634 0.50015858001317683396 0.50013817823598176782
0.50012147583313755354 0.50010762934042566972 0.50009602273391346519 0.50008619759613904622
BETA ARRAY:
0.00000000000000000000 0.27138873897943292913 0.25804028983881849564 0.25255266219951138321
0.25127425829515661281 0.25076686469441060572 0.25051262503018838196 0.25036693931648275878
0.25027566268593023726 0.25021468813942789200 0.25017193461899675483 0.25014079801154746523
0.25011741836762713505 0.25009941625567722822 0.25008525975036552733 0.25007392623132551104
0.25006471183909955353 0.25005711922770826207 0.25005078887938377011 0.25004545567337662963
TAB POINT NR., T VALUE, P0 VALUE:
16 0.86708967510485353427 1.13745154496586601664
ALPHA ARRAY:
0.26316906043097435412 0.53679496989144341522 0.50845622899322142359 0.50352937045237433969
0.50195912524045141040 0.50124838553376431109 0.50086545992608794086 0.50063541149608250580
0.50048636767800384056 0.50038427581494608123 0.50031128270980346259 0.50025728679668586021
0.50021622088062223861 0.50018426122715893629 0.50015890046471973527 0.50013843873244341679
0.50012169045441875168 0.50010780826205983713 0.50009617345814268828 0.50008632575269612689
BETA ARRAY:
0.00000000000000000000 0.26931799950306549360 0.25824605497867947131 0.25258733749037213150
0.25128531504428198267 0.25077186920367906979 0.25051532143343171459 0.25036855937947871149
0.25027671241114612240 0.25021540725981401853 0.25017244882620760472 0.25014117842795814267
0.25011770771396991495 0.25009964145807299655 0.25008543846675867953 0.25007407043378364102
0.25006482987822713057 0.25005721707237169698 0.25005087088797969069 0.25004552508860928474
TAB POINT NR., T VALUE, P0 VALUE:
17 0.92384411180023774357 1.14591125186549931121
ALPHA ARRAY:
0.25908450596006881248 0.53709146203864118729 0.50862282697352566554 0.50356695461324999566
0.50197384358159916776 0.50125571781171403946 0.50086964751936131321 0.50063802943356435920
0.50048811381326367977 0.50038549874442023250 0.50031217255327881698 0.50025795448116715949
0.50021673469299141427 0.50018466508377058089 0.50015922365511532661 0.50013870140116494024
0.50012190682647940073 0.50010798861468602846 0.50009632536649760925 0.50008645489986928743
BETA ARRAY:
0.00000000000000000000 0.26721821672413255626 0.25845433568694056811 0.25262311414875974247
0.25129659358010887558 0.25077695324201563981 0.25051805479532456270 0.25037019939181866594
0.25027777403771766287 0.25021613401103871285 0.25017296820037744577 0.25014156249577795608
0.25011799973103312610 0.25009986866994506048 0.25008561873131413536 0.25007421585319733664
0.25006494889061537954 0.25005731570715382108 0.25005095354649358468 0.25004559504467351378
TAB POINT NR., T VALUE, P0 VALUE:
18 0.98090907512571458761 1.15434683532460079485
ALPHA ARRAY:
0.25504206588668375840 0.53731893930292082869 0.50879546295779591647 0.50360546565038170098
0.50198882251891866966 0.50126315819065717083 0.50087388956084310262 0.50064067835022309638
0.50048987913483634489 0.50038673432538282137 0.50031307115205142460 0.50025862846170796039
0.50021725317658531087 0.50018507249705804690 0.50015954961334463347 0.50013896626437654841
0.50012212496670099391 0.50010817041212281364 0.50009647847012595712 0.50008658504676862829
BETA ARRAY:
0.00000000000000000000 0.26509073128079800051 0.25866460756916229936 0.25266004013254347859
0.25130810066740467038 0.25078211859505824138 0.25052082581195464919 0.25037185968498644624
0.25027884774504564577 0.25021686849935471162 0.25017349280881587394 0.25014195025993312500
0.25011829445008175910 0.25010009791380719592 0.25008580056071174275 0.25007436250222509547
0.25006506888607090197 0.25005741513978856135 0.25005103686112057745 0.25004566554660042697
TAB POINT NR., T VALUE, P0 VALUE:
19 1.03828609530471873552 1.16275701891021393615
ALPHA ARRAY:
0.25104264116558562426 0.53747627495060000344 0.50897421943390832380 0.50364493994471395427
0.50200406875649481375 0.50127070888770276211 0.50087818701409209218 0.50064335873694210574
0.50049166392109847096 0.50038798272848379733 0.50031397861712643229 0.50025930881397165072
0.50021777638496526255 0.50018548350613908359 0.50015987836873516257 0.50013923334456155916
0.50012234489265405037 0.50010835366833266587 0.50009663278028687166 0.50008671620259179709
BETA ARRAY:
0.00000000000000000000 0.26293690382261848129 0.25887632635896299463 0.25269816451567506606
0.25131984337093863858 0.25078736710209548699 0.25052363519630202728 0.25037354059742367097
0.25027993371589358370 0.25021761083282778720 0.25017402271989167649 0.25014234176600799366
0.25011859190281022171 0.25010032921246473762 0.25008598397183595014 0.25007451039367304460
0.25006518987450938531 0.25005751537809212447 0.25005112083811897908 0.25004573659947042856
TAB POINT NR., T VALUE, P0 VALUE:
20 1.09597670139977726908 1.17114056840721677641
ALPHA ARRAY:
0.24708708163327842093 0.53756240845996757871 0.50915916176426126218 0.50368541563567984069
0.50201958923988608516 0.50127837217947099885 0.50088254086441357230 0.50064607109435441538
0.50049346845541363281 0.50038924412717430486 0.50031489506119713283 0.50025999561469645294
0.50021830437240784279 0.50018589815062497628 0.50016020995096546930 0.50013950266445950581
0.50012256662210027741 0.50010853839742349419 0.50009678830835200670 0.50008684837662479342
BETA ARRAY:
0.00000000000000000000 0.26075811243808097839 0.25908892812809126020 0.25273753737200531371
0.25133182907172339187 0.25079270065820453761 0.25052648367875313239 0.25037524247470922043
0.25028103213646417224 0.25021836112137384523 0.25017455800305258509 0.25014273706025631073
0.25011889212134914056 0.25010056258901886322 0.25008616898177860195 0.25007465954049681876
0.25006531186595689573 0.25005761642996390511 0.25005120548381093334 0.25004580820841368726
TAB POINT NR., T VALUE, P0 VALUE:
21 1.15398242111942471324 1.17949629278155674901
ALPHA ARRAY:
0.24317618537621331914 0.53757634715798620371 0.50935033712702740553 0.50372693267206791143
0.50203539116802525030 0.50128615040414026380 0.50088695211946800465 0.50064881593307913908
0.50049529302624013821 0.50039051869776153191 0.50031582059867521835 0.50026068894171317527
0.50021883719391580031 0.50018631647062755368 0.50016054439006979469 0.50013977424706928841
0.50012279017299476033 0.50010872461365019386 0.50009694506580664503 0.50008698157824278097
BETA ARRAY:
0.00000000000000000000 0.25855575006454606275 0.25930182954347147923 0.25277820964750011446
0.25134406548391252954 0.25079812121650130185 0.25052937200763423148 0.25037696566974430103
0.25028214319647782908 0.25021911947679692625 0.25017509872884546600 0.25014313618961273755
0.25011919513827228980 0.25010079806687095079 0.25008635560784177825 0.25007480995580346583
0.25006543487055118831 0.25005771830338740520 0.25005129080458307392 0.25004588037861061131
TAB POINT NR., T VALUE, P0 VALUE:
22 1.21230478062257366030 1.18782304503201038604
ALPHA ARRAY:
0.23931069823822741326 0.53751716773439608610 0.50954777344364013679 0.50376953285936754048
0.50205148200581238483 0.50129404596358447065 0.50089142180990048978 0.50065159377396481955
0.50049713792724160385 0.50039180661946483538 0.50031675534572167605 0.50026138887396330878
0.50021937490522919140 0.50018673850676631143 0.50016088171644277327 0.50014004811565236946
0.50012301556348818044 0.50010891233141621476 0.50009710306425082486 0.50008711581691090715
BETA ARRAY:
0.00000000000000000000 0.25633122188986739828 0.25951442817301822284 0.25282023302043084480
0.25135656067234007223 0.25080363079051002496 0.25053230094976517940 0.25037871054294331503
0.25028326708925338167 0.25021988601282813734 0.25017564496893695858 0.25014353920170459030
0.25011950098660364921 0.25010103566972701174 0.25008654386754067978 0.25007496165285338034
0.25006555889854303481 0.25005782100643116456 0.25005137680688718777 0.25004595311529232823
TAB POINT NR., T VALUE, P0 VALUE:
23 1.27094530432036468810 1.19611972292992400439
ALPHA ARRAY:
0.23549131346645156341 0.53738401763211239582 0.50975147829485968898 0.50381325990307466940
0.50206786949743278889 0.50130206132560574463 0.50089595098999190023 0.50065440514833990733
0.50049900345740039868 0.50039310807447317868 0.50031769942027834259 0.50026209549151747872
0.50021991756283671303 0.50018716430017565420 0.50016122196084421324 0.50014032429373601463
0.50012324281192906176 0.50010910156527514824 0.50009726231540047824 0.50008725110218513036
BETA ARRAY:
0.00000000000000000000 0.25408594275484547484 0.25972610284197921772 0.25286365974912327137
0.25136932307068239139 0.25080923145665972412 0.25053527129103444470 0.25038047746243075338
0.25028440401179097297 0.25022066084516554065 0.25017619679613457411 0.25014394614486382192
0.25011980969982459504 0.25010127542160220036 0.25008673377860655899 0.25007511464506226541
0.25006568396029756938 0.25005792454724970297 0.25005146349724088604 0.25004602642374116936
TAB POINT NR., T VALUE, P0 VALUE:
24 1.32990551467552108481 1.20438526964687018094
ALPHA ARRAY:
0.23171867149429773412 0.53717611631324975003 0.50996143782798185835 0.50385815944741039963
0.50208456168043229119 0.50131019902626786804 0.50090054073833258427 0.50065725059827062382
0.50050088992113404258 0.50039442324800391761 0.50031865294210013362 0.50026280887559425824
0.50022046522398724114 0.50018759389251225877 0.50016156515440395027 0.50014060280511657952
0.50012347193686604690 0.50010929232993233276 0.50009742283108858147 0.50008738744371305498
BETA ARRAY:
0.00000000000000000000 0.25182133456550987186 0.25993621404151911616 0.25290854250686053879
0.25138236150021805447 0.25081492535691533879 0.25053828383699642475 0.25038226680424433891
0.25028555416485725716 0.25022144409151502641 0.25017675428440826695 0.25014435706813924944
0.25012012131188122622 0.25010151734682540193 0.25008692535898969821 0.25007526894600312377
0.25006581006629565261 0.25005802893408447391 0.25005155088222828236 0.25004610030929115912
TAB POINT NR., T VALUE, P0 VALUE:
25 1.38918693199923573065 1.21261867427062300487
ALPHA ARRAY:
0.22799335985952929349 0.53689275640052064304 0.51017761565797523734 0.50390427910887505058
0.50210156690058218862 0.50131846167233626697 0.50090519215851959165 0.50066013067682646678
0.50050279762841465097 0.50039575232836297193 0.50031961603278796573 0.50026352910857935305
0.50022101794670157855 0.50018802732596256070 0.50016191132862677650 0.50014088367386284323
0.50012370295705020267 0.50010948464024647846 0.50009758462326631787 0.50008752485123477423
BETA ARRAY:
0.00000000000000000000 0.24953882372401190070 0.26014410439119683868 0.25295493420354981341
0.25139568518915528762 0.25082071470155188684 0.25054133941349213039 0.25038407895254465725
0.25028671775307296040 0.25022223587163219925 0.25017731750891249044 0.25014477202130903284
0.25012043585719182940 0.25010176147004390084 0.25008711862686243576 0.25007542456940827827
0.25006593722713525416 0.25005813417526483023 0.25005163896850067884 0.25004617477732850935
TAB POINT NR., T VALUE, P0 VALUE:
26 1.44879107424561935000 1.22081897221030984696
ALPHA ARRAY:
0.22431591325483721732 0.53653330469413736635 0.51039995176556081061 0.50395166850403016414
0.50211889382756558656 0.50132685194383069509 0.50090990637987842152 0.50066304594835362745
0.50050472689489151956 0.50039709550700642111 0.50032058881582238835 0.50026425627404516590
0.50022157578978441725 0.50018846464325036698 0.50016226051539744611 0.50014116692431938962
0.50012393589143735586 0.50010967851123131122 0.50009774770400425294 0.50008766333458372105
BETA ARRAY:
0.00000000000000000000 0.24723983858665104982 0.26034909915691680447 0.25300288779377885841
0.25140930379249059573 0.25082660177208034448 0.25054443886729438564 0.25038591429983152378
0.25028789498500288394 0.25022303630736530740 0.25017788654600875074 0.25014519105489341157
0.25012075337065448558 0.25010200781622813058 0.25008731360062224109 0.25007558152917142267
0.25006606545353285435 0.25005824027920900186 0.25005172776277725986 0.25004624983329211856
TAB POINT NR., T VALUE, P0 VALUE:
27 1.50871945680374123432 1.22898524549203601801
ALPHA ARRAY:
0.22068681370779461797 0.53609720306469627034 0.51062836139547944620 0.50400037927087060935
0.50213655147151617238 0.50133537259669717334 0.50091468455821034474 0.50066599698875659938
0.50050667804201694679 0.50039845297860356417 0.50032157141659794391 0.50026499045677074973
0.50022213881283651968 0.50018890588764459752 0.50016261274698575903 0.50014145258111003726
0.50012417075919045990 0.50010987395805723641 0.50009791208549352227 0.50008780290368752715
BETA ARRAY:
0.00000000000000000000 0.24492580695725736804 0.26055050682584804181 0.25305245607090838566
0.25142322741235545698 0.25083258892433440023 0.25054758306677875747 0.25038777324716734607
0.25028908607324843040 0.25022384552269924534 0.25017846147328867151 0.25014561422016770500
0.25012107388765482195 0.25010225641067650722 0.25008751029889483979 0.25007573983934970302
0.25006619475632486506 0.25005834725442508585 0.25005181727184579374 0.25004632548267407628
TAB POINT NR., T VALUE, P0 VALUE:
28 1.56897359228729544627 1.23711662294669872016
ALPHA ARRAY:
0.21710649088654467226 0.53558396922283699985 0.51086273395842716899 0.50405046508311854047
0.50215454920043944592 0.50134402646560617015 0.50091952787656640824 0.50066898438578827082
0.50050865139717539457 0.50039982494110148464 0.50032256396245827486 0.50026573174276215883
0.50022270707626712396 0.50018935110296715797 0.50016296805605172437 0.50014174066914131884
0.50012440757968199283 0.50011007099605302273 0.50009807778004703243 0.50008794356856889028
BETA ARRAY:
0.00000000000000000000 0.24259815362381115990 0.26074761973970411424 0.25310369144686863748
0.25143746661880091266 0.25083867859172766696 0.25055077290262150517 0.25038965620440775332
0.25029029123454273691 0.25022466364380066171 0.25017904236959758346 0.25014604156917558341
0.25012139744407391203 0.25010250727902034842 0.25008770874053738972 0.25007589951416583053
0.25006632514646907031 0.25005845510951204899 0.25005190750256334250 0.25004640173102017261
TAB POINT NR., T VALUE, P0 VALUE:
29 1.62955499032192744698 1.24521228029210587681
ALPHA ARRAY:
0.21357532252709564205 0.53499319736674596411 0.51110293194037386313 0.50410198165674061981
0.50217289675854511844 0.50135281646688445685 0.50092443754604928761 0.50067200873934880485
0.50051064729381609238 0.50040121159579116301 0.50032356658273199678 0.50026648021927320748
0.50022328064130657811 0.50018980033360094679 0.50016332647565080510 0.50014203121360601109
0.50012464637249638727 0.50011026964070750654 0.50009824480010067488 0.50008808533934645006
BETA ARRAY:
0.00000000000000000000 0.24025829794580475994 0.26093971478766017846 0.25315664571735446708
0.25145203247096228869 0.25084487328869136940 0.25055400928852591811 0.25039156359043977683
0.25029151068984850196 0.25022549079906420507 0.25017962931505865272 0.25014647315474261622
0.25012172407629632764 0.25010276044722887948 0.25008790894464170906 0.25007606056801022622
0.25006645663504608689 0.25005856385316074313 0.25005199846185697978 0.25004647858393041304
TAB POINT NR., T VALUE, P0 VALUE:
30 1.69046515733025804023 1.25327144011189175268
ALPHA ARRAY:
0.21009363497765363708 0.53432455870881168666 0.51134878982321681629 0.50415498674795977479
0.50219160428551774721 0.50136174560158854757 0.50092941480664421712 0.50067507066179362404
0.50051266607158919279 0.50040261314737518062 0.50032457940876935762 0.50026723597482664591
0.50022385957001920822 0.50019025362449799931 0.50016368803923924570 0.50014232423998671627
0.50012488715743249285 0.50011046990767131691 0.50009841315821455341 0.50008822822623567227
BETA ARRAY:
0.00000000000000000000 0.23790765149944251757 0.26112605416005052992 0.25321136981214237909
0.25146693653853819986 0.25085117561430295365 0.25055729316197849611 0.25039349583342787884
0.25029274466445859633 0.25022632711915994157 0.25018022239109756261 0.25014690903049010426
0.25012205382121834613 0.25010301594161432867 0.25008811093053755754 0.25007622301544319830
0.25006658923326084540 0.25005867349415493355 0.25005209015672451713 0.25004655604705953863
TAB POINT NR., T VALUE, P0 VALUE:
31 1.75170559631464349853 1.26129337173407299630
ALPHA ARRAY:
0.20666170385502101245 0.53357780188293928409 0.51160011302095475272 0.50420954014200297484
0.50221068233675066754 0.50137081695872813193 0.50093446092808029263 0.50067817077825083008
0.50051470807648559096 0.50040402980403706006 0.50032560257397970330 0.50026799909923576358
0.50022444392531642614 0.50019071102118777178 0.50016405278067948439 0.50014261977405949596
0.50012512995450607189 0.50011067181275862203 0.50009858286707422516 0.50008837223954974196
BETA ARRAY:
0.00000000000000000000 0.23554761578733841816 0.26130588616383997703 0.25326791353028572894
0.25148219092350939146 0.25085758825611648716 0.25056062548503651714 0.25039545337106814121
0.25029399338809955202 0.25022717273708197942 0.25018082168046776387 0.25014734925084920336
0.25012238671625631667 0.25010327378883711358 0.25008831471779597180 0.25007638687119715269
0.25006672295244409212 0.25005878404137234053 0.25005218259423523885 0.25004663412611755167
TAB POINT NR., T VALUE, P0 VALUE:
32 1.81327780663771272484 1.26927739101241436373
ALPHA ARRAY:
0.20327975480772734342 0.53275275323419215480 0.51185667683579903128 0.50426570363179725990
0.50223014190456588545 0.50138003371864843366 0.50093957721072351437 0.50068130972694840289
0.50051677366098052459 0.50040546177751228903 0.50032663621386977077 0.50026876968362643007
0.50022503377097008178 0.50019117256978556832 0.50016442073424565169 0.50014291784189755849
0.50012537478395232877 0.50011087537194889703 0.50009875393949195551 0.50008851738970046553
BETA ARRAY:
0.00000000000000000000 0.23317958001891004232 0.26147844610069468443 0.25332632525998072629
0.25149780828201385425 0.25086411399420612863 0.25056400724514863411 0.25039743665085094015
0.25029525709503802665 0.25022802778819833658 0.25018142726727630887 0.25014779387107534631
0.25012272279935518911 0.25010353401591112054 0.25008852032623265619 0.25007655215017883739
0.25006685780405391207 0.25005889550378569447 0.25005227578153064534 0.25004671282687024691
TAB POINT NR., T VALUE, P0 VALUE:
33 1.87518328380072430874 1.27722286001407169475
ALPHA ARRAY:
0.19994796438024187613 0.53184931699255158118 0.51211822543886469422 0.50432354098579771464
0.50224999444043977138 0.50138939915658097733 0.50094476498650301187 0.50068448815955153862
0.50051886318418107513 0.50040690928316107564 0.50032768046608283038 0.50026954782045958435
0.50022562917162606583 0.50019163831700111389 0.50016479193462915702 0.50014321846987500081
0.50012562166622847377 0.50011108060138871399 0.50009892638840798713 0.50008866368719918176
BETA ARRAY:
0.00000000000000000000 0.23080491896718692340 0.26164295720829220403 0.25338665168293620341
0.25151380184628500124 0.25087075570543434218 0.25056743945601024619 0.25039944613033244899
0.25029653602419034479 0.25022889241030208901 0.25018203923701028565 0.25014824294726297105
0.25012306210899720925 0.25010379665020907918 0.25008872777591142999 0.25007671886747162153
0.25006699379967727371 0.25005900789046380469 0.25005236972582520547 0.25004679215513974843
TAB POINT NR., T VALUE, P0 VALUE:
34 1.93742351921978835552 1.28512918661724975454
ALPHA ARRAY:
0.19666646097234189146 0.53086747533267045668 0.51238447088030310049 0.50438311790410346538
0.50227025187825111280 0.50139891664637282062 0.50095002561987197429 0.50068770674151050151
0.50052097701197769558 0.50040837254004288531 0.50032873547043869966 0.50027033360355418316
0.50022623019281816846 0.50019210831014727641 0.50016516641694436530 0.50014352168467060604
0.50012587062201632197 0.50011128751739355422 0.50009910022689182350 0.50008881114265768218
BETA ARRAY:
0.00000000000000000000 0.22842499090725490561 0.26179863166530585058 0.25344893746312444929
0.25153018544654951067 0.25087751636795690536 0.25057092315845550040 0.25040148227741532755
0.25029783041923522175 0.25022976674366383853 0.25018265767656386843 0.25014869653636056244
0.25012340468421078465 0.25010406171946803427 0.25008893708714773228 0.25007688703833780953
0.25006713095103159564 0.25005912121057264225 0.25005246443440711776 0.25004687211680505233
TAB POINT NR., T VALUE, P0 VALUE:
35 2.00000000000000000000 1.29299582402285363694
ALPHA ARRAY:
0.19343532588748081180 0.52980728832154736069 0.51265509213394789001 0.50444450196199129883
0.50229092665856430876 0.50140858966440490851 0.50095536050880489549 0.50069096615241938104
0.50052311551719989479 0.50040985177099281063 0.50032980136897465174 0.50027112712811061988
0.50022683690098219997 0.50019258259714894125 0.50016554421673436516 0.50014382751327169773
0.50012612167222492794 0.50011149613644964343 0.50009927546814352701 0.50008895976678914092
BETA ARRAY:
0.00000000000000000000 0.22604113564104989324 0.26194467166027508833 0.25351322491983892014
0.25154697353277071650 0.25088439906597710951 0.25057445942138789685 0.25040354557063897430
0.25029914052872977937 0.25023065093108554031 0.25018328267426600148 0.25014915469618601597
0.25012375056457952473 0.25010432925179491684 0.25008914828051218581 0.25007705667822099133
0.25006726926996633587 0.25005923547337643709 0.25005255991463908081 0.25004695271780257528
TAB POINT NR., T VALUE, P0 VALUE:
36 2.06291420870753356119 1.30082227018432411727
ALPHA ARRAY:
0.19025459446381300638 0.52866889375606382823 0.51292973418174481191 0.50450776253997140177
0.50231203175395618358 0.50141842179371082964 0.50096077108583283489 0.50069426708638616313
0.50052527907977621327 0.50041134720269982750 0.50033087830598724200 0.50027192849073462543
0.50022744936347037926 0.50019306122655204133 0.50016592536997683089 0.50014413598297805188
0.50012637483799325680 0.50011170647521581021 0.50009945212549503209 0.50008910957040905402
BETA ARRAY:
0.00000000000000000000 0.22365467261269839834 0.26208027052433103845 0.25357955368503745604
0.25156418119611216297 0.25089140699476186944 0.25057804934275159654 0.25040563649947973616
0.25030046660622896811 0.25023154511795573174 0.25018391431990873402 0.25014961748544233121
0.25012409979025145940 0.25010459927567221704 0.25008936137683422092 0.25007722780274842928
0.25006740876846460387 0.25005935068823878962 0.25005265617395907303 0.25004703396412670908
TAB POINT NR., T VALUE, P0 VALUE:
37 2.12616762313974834856 1.30860806716002946492
ALPHA ARRAY:
0.18712425728138861873 0.52745250689231347525 0.51320800714342120839 0.50457297073944625202
0.50233358069539002557 0.50142841672830790240 0.50096625881911849334 0.50069761025241454214
0.50052746808689863029 0.50041285906578699259 0.50033196642807507756 0.50027273778946166296
0.50022806764856599648 0.50019354424753274641 0.50016630991308997996 0.50014444712140586813
0.50012663014069289254 0.50011191855052536818 0.50009963021241147362 0.50008926056443618872
BETA ARRAY:
0.00000000000000000000 0.22126689911808240216 0.26220461392748462452 0.25364796034500688632
0.25158182418998413491 0.25089854346593273876 0.25058169405054566396 0.25040775556466149038
0.25030180891040851407 0.25023244945230620568 0.25018455270477622410 0.25015008496373364387
0.25012445240194844063 0.25010487181996376084 0.25008957639720576088 0.25007740042773348243
0.25006754945864479608 0.25005946686462379723 0.25005275321988114185 0.25004711586183038135
TAB POINT NR., T VALUE, P0 VALUE:
38 2.18976171609335919330 1.31635280039273883918
ALPHA ARRAY:
0.18404426143893050959 0.52615842006860964533 0.51348948545702027866 0.50464019928303212997
0.50235558759963497932 0.50143857827775318749 0.50097182521357300764 0.50070099637479791980
0.50052968293319154767 0.50041438759489363899 0.50033306588418255467 0.50027355512378182873
0.50022869182549835606 0.50019403170990681483 0.50016669788293862807 0.50014476095649180096
0.50012688760193078417 0.50011213237938802230 0.50009980974249253080 0.50008941275989354267
BETA ARRAY:
0.00000000000000000000 0.21887908861178595930 0.26231688113790445827 0.25371847806644670775
0.25159991895052363524 0.25090581191304506360 0.25058539470388361866 0.25040990327847703427
0.25030316770519151463 0.25023336408487017280 0.25018519792167443030 0.25015055719158160471
0.25012480844097573105 0.25010514691392059291 0.25008979336298497004 0.25007757456917806911
0.25006769135276225521 0.25005958401209719585 0.25005285105999620268 0.25004719841702562246
TAB POINT NR., T VALUE, P0 VALUE:
39 2.25369795513072684677 1.32405609792082578606
ALPHA ARRAY:
0.18101451189354542025 0.52478700222399183037 0.51377370711607617228 0.50470952239858335644
0.50237806719772279980 0.50144891037193771441 0.50097747181201647916 0.50070442619352605722
0.50053192402088550095 0.50041593302875962898 0.50033417682564459008 0.50027438059466527158
0.50022932196445800671 0.50019452366413911142 0.50016708931684034391 0.50014507751649705245
0.50012714724355203048 0.50011234797899179996 0.50009999072947378695 0.50008956616790931330
BETA ARRAY:
0.00000000000000000000 0.21649248911406422316 0.26241624634331274900 0.25379113620713596606
0.25161848261634541139 0.25091321589746868975 0.25058915249410082055 0.25041208016512074017
0.25030454325987881137 0.25023428916914195926 0.25018585006496151051 0.25015103423044211468
0.25012516794923178426 0.25010542458718696821 0.25009001229580006597 0.25007775024327516844
0.25006783446321095383 0.25005970214032751696 0.25005294970197284771 0.25004728163588413878
TAB POINT NR., T VALUE, P0 VALUE:
40 2.31797780234432546178 1.33171762952594503254
ALPHA ARRAY:
0.17803487285670125935 0.52333869831396401526 0.51406017296933593196 0.50478101568594251196
0.50240103486442717192 0.50145941706613291877 0.50098320019638437075 0.50070790046470486732
0.50053419175999575472 0.50041749561031172459 0.50033529940623237317 0.50027521430458814410
0.50022995813661226510 0.50019502016135329518 0.50016748425257170560 0.50014539683001152762
0.50012740908764270425 0.50011256536670500702 0.50010017318722810547 0.50008972079971787772
BETA ARRAY:
0.00000000000000000000 0.21410832171996548292 0.26250188003331092995 0.25386595991141864368
0.25163753304738824674 0.25092075911458376174 0.25059296864591237378 0.25041428676103295732
0.25030593584928327428 0.25023522486143828745 0.25018650923057894767 0.25015151614272242516
0.25012553096921822148 0.25010570486980645459 0.25009023321755319709 0.25007792746641136166
0.25006797880252520280 0.25005982125908726029 0.25005304915355816475 0.25004736552463789247
TAB POINT NR., T VALUE, P0 VALUE:
41 2.38260271411944644846 1.33933710582199243966
ALPHA ARRAY:
0.17510516923982028529 0.52181402862509432204 0.51434834608904073177 0.50485475596542588457
0.50242450664874327118 0.50147010254630401411 0.50098901198898203375 0.50071141996098985764
0.50053648656850594446 0.50041907558675213910 0.50033643378220016648 0.50027605635755909859
0.50023060041412104003 0.50019552125334168049 0.50016788272837466104 0.50014571892595805371
0.50012767315653271666 0.50011278456007820966 0.50010035712976702226 0.50008987666666078316
BETA ARRAY:
0.00000000000000000000 0.21172777921223647008 0.26257295044111320261 0.25394296969081881341
0.25165708884266684406 0.25092844540030520557 0.25059684441862440343 0.25041652361525666689
0.25030734575386813695 0.25023617132096118973 0.25018717551608342307 0.25015200299179861305
0.25012589754405000911 0.25010598779222814903 0.25009045615042438718 0.25007810625516941409
0.25006812438338138491 0.25005994137825408253 0.25005314942257856645 0.25004745008957968788
TAB POINT NR., T VALUE, P0 VALUE:
42 2.44757414089520007246 1.34691427729019750938
ALPHA ARRAY:
0.17222518814289194938 0.52021358798998913550 0.51463765121385912102 0.50493082110704258201
0.50244849930533694803 0.50148097113470576250 0.50099490885378976216 0.50071498547203375690
0.50053880887255693422 0.50042067320964933429 0.50033758011233318313 0.50027690685914634177
0.50023124887015296421 0.50019602699257527580 0.50016828478296299430 0.50014604383359666475
0.50012793947279872261 0.50011300557684624226 0.50010054257124215496 0.50009003378018774822
BETA ARRAY:
0.00000000000000000000 0.20935202477915346529 0.26262862504281691687 0.25402218099017759704
0.25167716935672525697 0.25093627873794946171 0.25060078110740173863 0.25041879128980692312
0.25030877325988952814 0.25023712870986260625 0.25018784902067945847 0.25015249484203344024
0.25012626771746584232 0.25010627338531301012 0.25009068111687554819 0.25007828662633089854
0.25006827121859971441 0.25006006250781200242 0.25005325051694062985 0.25004753533706376467
TAB POINT NR., T VALUE, P0 VALUE:
43 2.51289352692387823863 1.35444893326521128726
ALPHA ARRAY:
0.16939468037959713629 0.51853804490403070713 0.51492747427261647790 0.50500928983943850070
0.50247303032692382051 0.50149202729577686064 0.50100089249782091595 0.50071859780494888377
0.50054115910664106528 0.50042228873503113096 0.50033873855799657047 0.50027776591650526206
0.50023190357890184089 0.50019653743221400358 0.50016869045552890043 0.50014637158252895267
0.50012820805926706797 0.50011322843493024197 0.50010072952594662940 0.50009019215185767535
BETA ARRAY:
0.00000000000000000000 0.20698219083794920183 0.26266807211197500180 0.25410360373978957973
0.25169779471457299544 0.25094426326545692064 0.25060478004459522551 0.25042109036005364212
0.25031021865954335146 0.25023809719331072047 0.25018852984525284897 0.25015299175879460785
0.25012664153383873949 0.25010656168034030931 0.25009090813965456286 0.25007846859687886113
0.25006841932114602278 0.25006018465785262251 0.25005335244463194677 0.25004762127350639789
TAB POINT NR., T VALUE, P0 VALUE:
44 2.57856231002874397438 1.36194090087704105311
ALPHA ARRAY:
0.16661336203255517818 0.51678814054513960209 0.51521716199498501449 0.50509024153755306163
0.50249811797752861477 0.50150327564234991763 0.50100696467253580997 0.50072225778478484263
0.50054353771380197861 0.50042392242348020232 0.50033990928318553039 0.50027863363840664415
0.50023256461560341286 0.50019705262611710579 0.50016909978574967090 0.50014670220270248644
0.50012847893901677937 0.50011345315243971054 0.50010091800831652349 0.50009035179333967445
BETA ARRAY:
0.00000000000000000000 0.20461937796405053614 0.26269046232685917273 0.25418724189410675850
0.25171898582486967201 0.25095240328298329894 0.25060884260113209349 0.25042342141511832954
0.25031168225111667114 0.25023907693955808747 0.25018921809240490923 0.25015349380847341524
0.25012701903818685272 0.25010685270901420391 0.25009113724179943873 0.25007865218400053022
0.25006856870413357143 0.25006030783857636788 0.25005345521372198500 0.25004770790538650500
TAB POINT NR., T VALUE, P0 VALUE:
45 2.64458192136031519267 1.36939004395364815773
ALPHA ARRAY:
0.16388091603245388555 0.51496468769769687198 0.51550602161528493599 0.50517375598797771391
0.50252378132656426153 0.50151472094219476352 0.50101312717531422943 0.50072596625502215884
0.50054594514584020050 0.50042557454023202229 0.50034109245457660741 0.50027951013526548565
0.50023323205655246131 0.50019757262885373887 0.50016951281379449211 0.50014703572441530055
0.50012875213538259767 0.50011367974767460379 0.50010110803293232904 0.50009051271641409810
BETA ARRAY:
0.00000000000000000000 0.20226465392590637861 0.26269497042741527339 0.25427309295767329831
0.25174076439110840161 0.25096070326087286821 0.25061297018797300962 0.25042578505828537079
0.25031316433914376883 0.25024006812001161235 0.25018991386648755664 0.25015400105850383485
0.25012740027618449979 0.25010714650347043433 0.25009136844664253495 0.25007883740509006960
0.25006871938082489178 0.25006043206029374226 0.25005355883236296063 0.25004779523924626018
TAB POINT NR., T VALUE, P0 VALUE:
46 2.71095378515121237210 1.37679626188896816491
ALPHA ARRAY:
0.16119699375499838675 0.51306856958164009140 0.51579332067549730881 0.50525991313101110195
0.50255004028365849783 0.50152636812491358927 0.50101938185098960874 0.50072972407808249571
0.50054838186352468871 0.50042724535527534332 0.50034228824158017695 0.50028039551917043124
0.50023390597912024269 0.50019809749571376268 0.50016992958033135933 0.50014737217832045434
0.50012902767195805572 0.50011390823912744954 0.50010129961452043179 0.50009067493297358864
BETA ARRAY:
0.00000000000000000000 0.19991905282477121139 0.26268077691851604569 0.25436114749905424786
0.25176315292053215953 0.25096916784802599862 0.25061716425763967762 0.25042818190742854123
0.25031466523456704344 0.25024107090930443833 0.25019061727363925533 0.25015451357738201358
0.25012778529417342295 0.25010744309628314878 0.25009160177781486369 0.25007902427775137670
0.25006887136463365333 0.25006055733342660186 0.25005366330879072179 0.25004788328169171586
TAB POINT NR., T VALUE, P0 VALUE:
47 2.77767931846964183920 1.38415948848103459926
ALPHA ARRAY:
0.15856121662981418855 0.51110073858763690207 0.51607828693350052777 0.50534879277841694259
0.50257691563414299823 0.50153822228920717261 0.50102573059344809744 0.50073353213585612623
0.50055084833681054418 0.50042893514345528103 0.50034349681639416699 0.50028128990391384012
0.50023458646177227138 0.50019862728271872766 0.50017035012653410875 0.50014771159543066363
0.50012930557259860154 0.50011413864548549430 0.50010149276795461004 0.50009083845502413715
BETA ARRAY:
0.00000000000000000000 0.19758357433841814479 0.26264706981571431063 0.25445138865362581001
0.25178617473050098701 0.25097780188067289158 0.25062142630581707174 0.25043061259545343041
0.25031618525490293344 0.25024208548536980600 0.25019132842182184634 0.25015503143468621226
0.25012817413917428008 0.25010774252047185812 0.25009183725925046770 0.25007921281980092683
0.25006902466912656028 0.25006068366850944719 0.25005376865132564387 0.25004797203939343184
TAB POINT NR., T VALUE, P0 VALUE:
48 2.84475993097158837288 1.39147969074479065343
ALPHA ARRAY:
0.15597317775566091015 0.50906221491914383806 0.51636010838241284624 0.50544047430590753166
0.50260442907510633039 0.50155028871053218526 0.50103217534729593644 0.50073739133024736568
0.50055334504506310156 0.50043064418457908552 0.50034471835405904749 0.50028219340502250309
0.50023527358408645670 0.50019916204663306478 0.50017077449408956999 0.50014805400712300626
0.50012958586142476777 0.50011437098563287955 0.50010168750825755231 0.50009100329468615488
BETA ARRAY:
0.00000000000000000000 0.19525918306738809251 0.26259304642929371360 0.25454379161620360731
0.25180985395201136496 0.25098661039156463675 0.25062575787303464004 0.25043307777075651262
0.25031772472441304904 0.25024311202951694778 0.25019204742085828951 0.25015555470109719483
0.25012856685889837416 0.25010804480950852402 0.25009207491519087564 0.25007940304927066451
0.25006917930802527734 0.25006081107619073343 0.25005387486837353671 0.25004806151908711199
TAB POINT NR., T VALUE, P0 VALUE:
49 2.91219702465179287114 1.39875686770405879534
ALPHA ARRAY:
0.15343244351655293877 0.50695408514208113229 0.51663793338675129239 0.50553503631939888021
0.50263260325189726003 0.50156257284917029686 0.50103871810959877990 0.50074130258373870617
0.50055587247728862066 0.50043237276352468218 0.50034595303251412300 0.50028310613978902586
0.50023596742677160272 0.50019970184497548291 0.50017120272520484181 0.50014839944514370295
0.50012986856282538829 0.50011460527865284806 0.50010188385060239437 0.50009116946419555715
BETA ARRAY:
0.00000000000000000000 0.19294680798203921857 0.26251791518200781850 0.25463832312459842579
0.25183421553005231448 0.25099559861959182339 0.25063016054643106806 0.25043557809770163787
0.25031928397428070986 0.25024415072650908402 0.25019277438247134401 0.25015608344841907933
0.25012896350175962691 0.25010834999732478360 0.25009231477018963710 0.25007959498441094273
0.25006933529520838528 0.25006093956723419955 0.25005398196842656371 0.25004815172757424877
TAB POINT NR., T VALUE, P0 VALUE:
50 2.97999199359359282339 1.40599104916700798902
ALPHA ARRAY:
0.15093855519363915928 0.50477750064279983728 0.51691087094090072194 0.50563255629411326825
0.50266146179494908473 0.50157508035873048238 0.50104536093169682414 0.50074526683997443109
0.50055843113237180973 0.50043412117035206773 0.50034720103265516518 0.50028402822730389614
0.50023666807168627962 0.50020024673603057833 0.50017163486261469379 0.50014874794161297516
0.50013015370146086317 0.50011484154382998099 0.50010208181031427614 0.50009133697590486018
BETA ARRAY:
0.00000000000000000000 0.19064734196834401406 0.26242089745549465864 0.25473494093530590980
0.25185928522046589722 0.25100477201983984831 0.25063463596160746081 0.25043811425711476057
0.25032086334279309247 0.25024520176464358951 0.25019350942032321492 0.25015661774960066304
0.25012936411688680260 0.25010865811831931361 0.25009255684911693894 0.25007978864369351135
0.25006949264471336684 0.25006106915252021662 0.25005408996006417336 0.25004824267172277572
TAB POINT NR., T VALUE, P0 VALUE:
51 3.04814622371770531466 1.41318229448931386966
ALPHA ARRAY:
0.14849103056796331322 0.50253367599498951792 0.51717799105512430376 0.50573311018564201082
0.50269102935677872374 0.50158781709510659388 0.50105210592109984480 0.50074928506436452653
0.50056102151932042108 0.50043588970041765031 0.50034846253839342277 0.50028495978848825198
0.50023737560185807573 0.50020079677886066129 0.50017207094958909658 0.50014909952902998172
0.50013044130226647272 0.50011507980065246630 0.50010228140287191877 0.50009150584228429095
BETA ARRAY:
0.00000000000000000000 0.18836164147009064046 0.26230122945995632460 0.25483359329265731324
0.25188508958296285389 0.25101413627408877714 0.25063918580457407989 0.25044068694679777061
0.25032246317552920125 0.25024626533583440199 0.25019425265005619463 0.25015715767875723471
0.25012976875413598847 0.25010896920736533765 0.25009280117716430479 0.25007998404581455561
0.25006965137073862372 0.25006119984304715581 0.25005419885195404332 0.25004833435846772813
TAB POINT NR., T VALUE, P0 VALUE:
52 3.11666109253003424974 1.42033069132905036178
ALPHA ARRAY:
0.14608936550950689548 0.50022388723617619794 0.51743832527403725555 0.50583677201212598077
0.50272133164899620166 0.50160078912591286382 0.50105895524346649898 0.50075335824470974832
0.50056364415751716948 0.50043767865449162558 0.50034973773671604831 0.50028590094612736984
0.50023809010150323948 0.50020135203331780456 0.50017251102994088368 0.50014945424027783561
0.50013073139045574191 0.50011532006881439923 0.50010248264390922236 0.50009167607592291062
BETA ARRAY:
0.00000000000000000000 0.18609052622488073937 0.26215816412130545482 0.25493421839288233450
0.25191165596992722293 0.25102369730176411397 0.25064381181379606204 0.25044329688206234101
0.25032408382555388592 0.25024734163569674699 0.25019500418933432826 0.25015770331119288706
0.25013017746410333818 0.25010928329981827955 0.25009304777984937966 0.25008018120969778581
0.25006981148764552525 0.25006133164993277637 0.25005430865285303735 0.25004842679481191199
TAB POINT NR., T VALUE, P0 VALUE:
53 3.18553796886858542160 1.42743635439718355073
ALPHA ARRAY:
0.14373303554820533271 0.49784947005449394177 0.51769086733210833981 0.50594361340676445535
0.50275239547914091278 0.50161400274042055564 0.50106591112467251974 0.50075748739184874750
0.50056629957697923420 0.50043948833887848425 0.50035102681774798159 0.50028685182490489124
0.50023881165604672069 0.50020191256005611926 0.50017295514803354769 0.50014981210862870289
0.50013102399152385605 0.50011556236821811546 0.50010268554921688488 0.50009184768952975155
BETA ARRAY:
0.00000000000000000000 0.18383477909107775197 0.26199097297960643555 0.25503674384466186057
0.25193901251062701432 0.25103346127134309935 0.25064851578234384558 0.25044594479628475956
0.25032572565361813902 0.25024843086363425589 0.25019576415788613400 0.25015825472342334309
0.25013059029813808482 0.25010960043152356669 0.25009329668302080153 0.25008038015449757941
0.25006997300996048939 0.25006146458441563399 0.25005441937160817535 0.25004851998782658145
TAB POINT NR., T VALUE, P0 VALUE:
54 3.25477821264957495859 1.43449942420736173636
ALPHA ARRAY:
0.14142149742292313493 0.49541181788648172377 0.51793457395034806698 0.50605370313992468605
0.50278424878714061737 0.50162746446001945469 0.50107297585297271774 0.50076167354032820370
0.50056898831862561635 0.50044131906554074971 0.50035232997481533173 0.50028781255143780737
0.50023954035214262128 0.50020247842054426299 0.50017340334878917382 0.50015017316774898547
0.50013131913125112886 0.50011580671897655764 0.50010289013474404254 0.50009202069593496841
BETA ARRAY:
0.00000000000000000000 0.18159514596264771233 0.26179894809228269835 0.25514108612787765083
0.25196718809043148172 0.25104343461221916928 0.25065329956015434133 0.25044863144148276872
0.25032738902836591747 0.25024953322292855765 0.25019653267754840956 0.25015881199319931033
0.25013100730835583054 0.25010992063882458654 0.25009354791286316192 0.25008058089960217648
0.25007013595237709677 0.25006159865785651017 0.25005453101715761682 0.25004861394465212502
TAB POINT NR., T VALUE, P0 VALUE:
55 3.32438317461281856452 1.44152006582851109745
ALPHA ARRAY:
0.13915419060467251352 0.49291237992676185367 0.51816836577788870962 0.50616710661019576906
0.50281692068116748424 0.50164118104922828746 0.50108015178126200952 0.50076591774909696547
0.50057171093455263483 0.50044317115222604823 0.50035364740451030051 0.50028878325431222164
0.50024027627769506523 0.50020304967707818600 0.50017385567769651405 0.50015053745170458941
0.50013161683570652415 0.50011605314141567608 0.50010309641659993228 0.50009219510809100362
BETA ARRAY:
0.00000000000000000000 0.17937233576864809224 0.26158140393522682199 0.25524715005239706839
0.25199621232461935046 0.25105362402702494873 0.25065816505640920465 0.25045135758891549808
0.25032907432654774374 0.25025064892083142711 0.25019730987231115773 0.25015937519953037759
0.25013142854765211964 0.25011024395857080036 0.25009380149590205738 0.25008078346463692989
0.25007030032975823857 0.25006173388173986278 0.25005464359853165794 0.25004870867249876060
TAB POINT NR., T VALUE, P0 VALUE:
56 3.39435419606649081396 1.44849846764355580925
ALPHA ARRAY:
0.13693053879066048198 0.49035265905059840419 0.51839112848165951863 0.50628388530381145088
0.50285044147264264416 0.50165515952727845266 0.50108744132944101398 0.50077022110222524964
0.50057446798831785603 0.50044504492259761798 0.50035497930675769167 0.50028976406411991087
0.50024101952187949827 0.50020362639279412067 0.50017431218081920473 0.50015090499496628079
0.50013191713125123208 0.50011630165607686418 0.50010330441105557667 0.50009237093907376749
BETA ARRAY:
0.00000000000000000000 0.17716702055395903427 0.26133767929464135939 0.25535482821886332044
0.25202611552634664326 0.25106403650441160214 0.25066311424203689318 0.25045412402970763860
0.25033078193324135406 0.25025177816865957659 0.25019809586836366461 0.25015994442270946902
0.25013185406971630246 0.25011057042812601758 0.25009405745900923413 0.25008098786946761128
0.25007046615713829875 0.25006187026767529844 0.25005475712485374274 0.25004880417864723957
TAB POINT NR., T VALUE, P0 VALUE:
57 3.46469260863134557797 1.45543484011738625804
ALPHA ARRAY:
0.13474995136604970195 0.48773420965051445132 0.51860171398681181856 0.50640409622195796529
0.50288484271011664848 0.50166940718029563037 0.50109484698689209958 0.50077458470965000770
0.50057726005523276513 0.50044694070636836676 0.50035632588488305175 0.50029075511349570628
0.50024177017516442801 0.50020420863168182018 0.50017477290480413112 0.50015127583241513092
0.50013222004454230125 0.50011655228371942949 0.50010351413454549186 0.50009254820208383330
BETA ARRAY:
0.00000000000000000000 0.17497983563771452254 0.26106713914215959969 0.25546400048359463389
0.25205692866832763375 0.25107467933227950003 0.25066814915234553121 0.25045693157549907595
0.25033251224207967370 0.25025292118189218061 0.25019889079414176555 0.25016051974433787097
0.25013228392904569751 0.25011090008537683494 0.25009431582940782785 0.25008119413420377415
0.25007063344972537163 0.25006200782739906715 0.25005487160534148842 0.25004890047044956022
TAB POINT NR., T VALUE, P0 VALUE:
58 3.53539973398449043144 1.46232941457700059116
ALPHA ARRAY:
0.13261182483061645111 0.48505863538836550345 0.51879894186995428786 0.50652779127558537553
0.50292015721172793845 0.50168393157410388686 0.50110237131507212496 0.50077900970794762669
0.50058008772266450011 0.50044885883943859275 0.50035768734568248999 0.50029175653715571623
0.50024252832933361535 0.50020479645859805218 0.50017523789688994198 0.50015164999934805291
0.50013252560253632786 0.50011680504532310109 0.50010372560366941906 0.50009272691044764778
BETA ARRAY:
0.00000000000000000000 0.17281137984577788828 0.26076917648555098694 0.25557453342982863564
0.25208868333776809358 0.25108556011145196393 0.25067327188979394365 0.25045978105912127388
0.25033426565548641266 0.25025407818027122722 0.25019969478037633509 0.25016110124735084759
0.25013271818096005959 0.25011123296874124424 0.25009457663467770087 0.25008140227920217529
0.25007080222290351534 0.25006214657277557962 0.25005498704930772535 0.25004899755532969065
TAB POINT NR., T VALUE, P0 VALUE:
59 3.60647688360280962866 1.46918244200654455989
ALPHA ARRAY:
0.13051554418778336489 0.48232758686452265071 0.51898160090662054074 0.50665501664745468052
0.50295641909591493041 0.50169874056767679454 0.50111001695022849487 0.50078349726113519581
0.50058295159034698354 0.50045079966403748667 0.50035906389949422625 0.50029276847193641323
0.50024329407750872863 0.50020538993928035351 0.50017570720491571781 0.50015202753148343161
0.50013283383249320312 0.50011705996209057406 0.50010393883519407989 0.50009290707761875723
BETA ARRAY:
0.00000000000000000000 0.17066221581351560377 0.26044321418710971385 0.25568627984768012493
0.25212141168407653787 0.25109668676978029886 0.25067848462690856999 0.25046267333530177617
0.25033604258491958955 0.25025524938790479311 0.25020050796014303819 0.25016168901604386159
0.25013315688161636163 0.25011156911717741285 0.25009483990276087900 0.25008161232507025577
0.25007097249223504213 0.25006228651579894775 0.25005510346616155193 0.25004909544078430130
TAB POINT NR., T VALUE, P0 VALUE:
60 3.67792535850613192708 1.47599419185977370658
ALPHA ARRAY:
0.12846048429379348481 0.47954275920611146342 0.51914845077371145820 0.50678581212127860275
0.50299366381002962577 0.50171384232725981886 0.50111778660624555355 0.50078804856150163713
0.50058585227070180169 0.50045276352886853822 0.50036045576027191736 0.50029379105683460841
0.50024406751417247190 0.50020598914036105210 0.50017618087732979597 0.50015240846496684883
0.50013314476197992015 0.50011731705545009190 0.50010415384605495642 0.50009308871717904975
BETA ARRAY:
0.00000000000000000000 0.16853287035505456677 0.26008870674166101209 0.25579907822531054330
0.25215514635886678349 0.25110806757666439311 0.25068378960935431915 0.25046560928139827887
0.25033784345112330569 0.25025643503337334377 0.25020133046891338172 0.25016228313609941703
0.25013360008802389863 0.25011190857019264114 0.25009510566196709025 0.25008182429266968300
0.25007114427346284619 0.25006242766859454887 0.25005522086540940467 0.25004919413438350746
TAB POINT NR., T VALUE, P0 VALUE:
61 3.74974644900024118704 1.48276495089226158487
ALPHA ARRAY:
0.12644601116507423222 0.47670588957657963121 0.51929822390693641136 0.50692021037795193775
0.50303192815647178887 0.50172924534118776538 0.50112568307762875806 0.50079266483047007081
0.50058879038916919608 0.50045475078925897425 0.50036186314565981450 0.50029482443304833761
0.50024484873519219953 0.50020659412938156252 0.50017665896319875646 0.50015279283637690620
0.50013345841887444169 0.50011757634705806763 0.50010437065335809619 0.50009327184284001385
BETA ARRAY:
0.00000000000000000000 0.16642383489515992893 0.25970514200600159047 0.25591275225393481817
0.25218992044775399243 0.25111971115796883478 0.25068918915916777750 0.25046858979816381296
0.25033966868438810812 0.25025763534983916368 0.25020216244460710626 0.25016288369461454174
0.25013404785805972177 0.25011225136785250129 0.25009537394097940798 0.25008203820311995503
0.25007131758251276983 0.25006257004342061417 0.25005533925665614381 0.25004929364377162191
TAB POINT NR., T VALUE, P0 VALUE:
62 3.82194143441982927502 1.48949502201547896271
ALPHA ARRAY:
0.12447148324211396907 0.47381875460922526274 0.51942962751252392484 0.50705823625901800192
0.50307125031593273352 0.50174495843542040698 0.50113370924263451522 0.50079734731949286145
0.50059176658454954880 0.50045676180731336098 0.50036328627706980535 0.50029586874401868355
0.50024563783784402910 0.50020720497480696146 0.50017714151221657191 0.50015318068273114755
0.50013377483136962996 0.50011783785880174453 0.50010458927438194291 0.50009345646844401383
BETA ARRAY:
0.00000000000000000000 0.16433556595984182833 0.25929204287152199182 0.25602711034941486037
0.25222576739343666934 0.25113162651130974253 0.25069468567816153318 0.25047161581054467154
0.25034151872482029601 0.25025885057515902620 0.25020300402764595985 0.25016349078012892735
0.25013450025048441170 0.25011259755079016164 0.25009564476886000058 0.25008225407780206862
0.25007149243549600896 0.25006271365266984184 0.25005545864960615494 0.25004939397666791789
TAB POINT NR., T VALUE, P0 VALUE:
63 3.89451158287149234764 1.49618472317467283330
ALPHA ARRAY:
0.12253625260843871176 0.47088316776770556034 0.51954134573168727750 0.50719990599768140421
0.50311166986730666812 0.50176099078981849949 0.50114186806655402887 0.50080209731098087389
0.50059478150935575974 0.50045879695207150776 0.50036472537976039716 0.50029692413547255967
0.50024643492083746555 0.50020782174604085019 0.50017762857471392560 0.50015357204149208325
0.50013409402797723996 0.50011810161280189726 0.50010480972657919331 0.50009364260796558243
BETA ARRAY:
0.00000000000000000000 0.16226848572178896188 0.25884896887174249005 0.25614194519330774261
0.25226272090954901997 0.25114382302168231077 0.25070028165150872644 0.25047468826851281574
0.25034339402262054351 0.25026008095200021712 0.25020385536100889678 0.25016410448265374558
0.25013495732495819951 0.25011294716021590147 0.25009591817505599061 0.25008247193836225247
0.25007166884871155856 0.25006285850887103551 0.25005557905406446669 0.25004949514086740267
TAB POINT NR., T VALUE, P0 VALUE:
64 3.96745815097687308972 1.50283438625228145300
ALPHA ARRAY:
0.12063966616353138364 0.46790097663695857273 0.51963204195551834034 0.50734522641785436583
0.50315322780379542606 0.50177735195518121602 0.50115016260515998776 0.50080691611926855300
0.50059783583017693220 0.50046085659967081481 0.50036618068291769839 0.50029799075546648196
0.50024724008434054928 0.50020844451344051058 0.50017812020166770128 0.50015396695057331854
0.50013441603753197769 0.50011836763141557433 0.50010503202757868079 0.50009383027551273093
BETA ARRAY:
0.00000000000000000000 0.16022298259673356221 0.25837551771653329580 0.25625703329634931310
0.25230081488476186838 0.25115631047739340484 0.25070597965151727557 0.25047780814793460007
0.25034529503837223009 0.25026132672796003033 0.25020471659028874606 0.25016472489370116010
0.25013541914205744482 0.25011330023792682069 0.25009619418940542551 0.25008269180671576700
0.25007184683864869916 0.25006300462469076847 0.25005570047993788520 0.25004959714424160198
TAB POINT NR., T VALUE, P0 VALUE:
65 4.04078238361605292037 1.50944435599843334744
ALPHA ARRAY:
0.11878106674877992466 0.46487406014840470741 0.51970036128714836291 0.50749419410191432952
0.50319596654469932382 0.50179405187106455943 0.50115859600832542951 0.50081180509161653494
0.50060093022805380183 0.50046294113351321321 0.50036765241973845875 0.50029906875443135573
0.50024805343000554180 0.50020907334833236187 0.50017861644471064884 0.50015436544834578845
0.50013474088919562456 0.50011863593723888279 0.50010525619518728648 0.50009401948532827739
BETA ARRAY:
0.00000000000000000000 0.15819941188687479783 0.25787132674488661192 0.25637213458745947836
0.25234008327660620201 0.25116909908625738737 0.25071178234160355815 0.25048097645147777088
0.25034722224333988988 0.25026258815568885957 0.25020558786375039588 0.25016535210631455369
0.25013588576329148023 0.25011365682631674930 0.25009647284214336288 0.25008291370505077236
0.25007202642198952522 0.25006315201293507436 0.25005582293723614538 0.25004969999473935550
TAB POINT NR., T VALUE, P0 VALUE:
66 4.11448551367129956313 1.51601498898989500356
ALPHA ARRAY:
0.11695979422577296059 0.46180432574374496141 0.51974493314716261280 0.50764679452805476014
0.50323992994235292896 0.50181110088439851696 0.50116717152382464262 0.50081676560925359504
0.50060406539886636425 0.50046505094443685094 0.50036914082751522954 0.50030015828521830530
0.50024887506099516252 0.50020970832302772548 0.50017911735614122982 0.50015476757364410140
0.50013506861246122965 0.50011890655310981607 0.50010548224739187823 0.50009421025179119314
BETA ARRAY:
0.00000000000000000000 0.15619809646752466508 0.25733607428826432011 0.25648699203145232521
0.25238055999449159983 0.25118219949200669183 0.25071769248047564259 0.25048419420955881165
0.25034917611977821231 0.25026386549301701463 0.25020646933239054186 0.25016598621509949142
0.25013635725111983198 0.25011401696838636166 0.25009675416390807275 0.25008313765583226603
0.25007220761561151621 0.25006330068655116470 0.25005594643607307971 0.25004980370038762367
TAB POINT NR., T VALUE, P0 VALUE:
67 4.18856876177127669745 1.52254665261865443051
ALPHA ARRAY:
0.11517518650648204091 0.45869370648213428337 0.51976437401739229604 0.50780300117832887687
0.50328516328362978305 0.50182850976891857150 0.50117589250132651481 0.50082179908845984278
0.50060724205373417734 0.50046718643089268483 0.50037064614772370814 0.50030125950314557550
0.50024970508200939101 0.50021034951083890526 0.50017962298893364695 0.50015517336577299410
0.50013539923715737111 0.50011917950211112584 0.50010571020236127823 0.50009440258941796818
BETA ARRAY:
0.00000000000000000000 0.15421932751319086510 0.25676948093676208874 0.25660133127872129017
0.25242227877139254845 0.25119562279086146075 0.25072371292653646292 0.25048746248133283637
0.25035115716125204875 0.25026515900308539645 0.25020736114999904896 0.25016662731625544083
0.25013683366896982668 0.25011438070775350058 0.25009703818574735982 0.25008336368180609173
0.25007239043659015148 0.25006345065862917410 0.25005607098666780455 0.25004990826929230610
TAB POINT NR., T VALUE, P0 VALUE:
68 4.26303333603582366667 1.52903972411115647891
ALPHA ARRAY:
0.11342658053507728064 0.45554415809597562326 0.51975729031733791867 0.50796277461871750152
0.50333171328540472694 0.50184628974542464468 0.50118476239659130299 0.50082690698169318574
0.50061046091942983669 0.50046934799912614454 0.50037216862611233297 0.50030237256604653451
0.50025054359931284913 0.50021099698609559084 0.50018013339674806194 0.50015558286451390027
0.50013573279345248837 0.50011945480757323909 0.50010594007844825987 0.50009459651286399583
BETA ARRAY:
0.00000000000000000000 0.15226336525937375650 0.25617131070060918952 0.25671486035024531272
0.25246527302367922112 0.25120938054819481588 0.25072984664251760385 0.25049078235572836712
0.25035316587296790368 0.25026646895448017084 0.25020826347322197840 0.25016727550760827120
0.25013731508125459455 0.25011474808866371647 0.25009732493912500833 0.25008359180600302114
0.25007257490220156987 0.25006360194240393352 0.25005619659934592474 0.25005001370963907184
TAB POINT NR., T VALUE, P0 VALUE:
69 4.33788043182141440932 1.53549458957904122420
ALPHA ARRAY:
0.11171331322131830373 0.45235765600104727465 0.51972228140660935090 0.50812606155279706979
0.50337962808332655136 0.50186445250287758476 0.50119378477588238591 0.50083209077876120321
0.50061372273880614579 0.50047153606336404134 0.50037370851279419732 0.50030349763431880887
0.50025139072076277810 0.50021165082416159206 0.50018064863394100603 0.50015599611013163552
0.50013606931185928663 0.50011973249307722110 0.50010617189419157453 0.50009479203692497709
BETA ARRAY:
0.00000000000000000000 0.15033043979642807153 0.25554137205986339489 0.25682726936132486613
0.25250957569857595314 0.25122348481522200502 0.25073609670035460914 0.25049415495252947532
0.25035520277211741415 0.25026779562137158675 0.25020917646162633317 0.25016793088864355441
0.25013780155339147964 0.25011511915600102707 0.25009761445592735261 0.25008382205174291027
0.25007276102992527495 0.25006375455125677237 0.25005632328454075659 0.25005012002969420173
TAB POINT NR., T VALUE, P0 VALUE:
70 4.41311123146740590380 1.54191164310207923654
ALPHA ARRAY:
0.11003472232564451129 0.44913619226713706470 0.51965794270590570284 0.50829279385084181477
0.50342895721321739593 0.50188301022033988904 0.50120296332060516410 0.50083735200804069710
0.50061702827123752768 0.50047375104600690107 0.50037526606234135303 0.50030463487097458220
0.50025224655583762604 0.50021231110145191242 0.50018116875557598761 0.50015641314338120133
0.50013640882323921534 0.50012001258245778558 0.50010640566831800891 0.50009498917653834513
BETA ARRAY:
0.00000000000000000000 0.14842075189192353867 0.25487951889556144468 0.25693823028750544351
0.25255521910874067066 0.25123794814563275860 0.25074246628631493832 0.25049758142350791718
0.25035726838823334801 0.25026913928365709102 0.25021010027776657737 0.25016859356054069081
0.25013829315182086817 0.25011549395529890312 0.25009790676846997624 0.25008405444263893196
0.25007294883744688707 0.25006390849871735002 0.25005645105279456988 0.25005022723780544319
TAB POINT NR., T VALUE, P0 VALUE:
71 4.48872690404318746920 1.54829128584384749187
ALPHA ARRAY:
0.10839014729625781604 0.44588177255580566042 0.51956286892820925430 0.50846288755646473418
0.50347975158437881685 0.50190197558976342825 0.50121230183218589154 0.50084269223774732246
0.50062037829307625053 0.50047599337782690803 0.50037684153388157738 0.50030578444169209030
0.50025311121566626166 0.50021297789545016988 0.50018169381743430165 0.50015683400551471050
0.50013675135880702211 0.50012029509980635292 0.50010664141974447360 0.50009518794678471045
BETA ARRAY:
0.00000000000000000000 0.14653447383803076954 0.25418565129604649230 0.25704739677617895083
0.25260223475347220223 0.25125278361207667207 0.25074895870638986759 0.25050106295360805415
0.25035936326355867998 0.25027050022710889844 0.25021103508725298694 0.25016926362620788422
0.25013878994402544597 0.25011587253275148579 0.25009820190950454290 0.25008428900260188649
0.25007313834266094307 0.25006406379846551734 0.25005657991475984917 0.25005033534240287762
TAB POINT NR., T VALUE, P0 VALUE:
72 4.56472860509634324377 1.55463392520054727067
ALPHA ARRAY:
0.10677893005864711913 0.44259641303233154552 0.51943565741103873035 0.50863624187318457879
0.50353206344404792977 0.50192136183962247881 0.50122180423720385813 0.50084811307725784382
0.50062377359812406752 0.50047826349817165410 0.50037843519119767918 0.50030694651486834621
0.50025398481305783069 0.50021365128472637378 0.50018222387602604567 0.50015725873828843709
0.50013709695013538400 0.50012058006947415758 0.50010687916758012368 0.50009538836288932716
BETA ARRAY:
0.00000000000000000000 0.14467175032055868798 0.25345971623271275102 0.25715440400736896486
0.25265065312607001522 0.25126800482240129371 0.25075557739196175443 0.25050460076218751818
0.25036148795342933479 0.25027187874352618266 0.25021198105882189146 0.25016994119031799110
0.25013929199854989701 0.25011625493522504169 0.25009849991222576211 0.25008452575584459188
0.25007332956367374496 0.25006422046433320904 0.25005670988120057489 0.25005044435199980088
TAB POINT NR., T VALUE, P0 VALUE:
73 4.64111747640194106625 1.56093997398323081923
ALPHA ARRAY:
0.10520041575814706527 0.43928213725929593204 0.51927491153980483297 0.50881273813359996539
0.50358594633221072533 0.50194118275938532666 0.50123147459279098832 0.50085361617848771629
0.50062721499811990046 0.50048056185517389495 0.50038004730282942273 0.50030812126167313020
0.50025486746253227173 0.50021433134895506623 0.50018275898860134696 0.50015768738396999353
0.50013744562915961766 0.50012086751607540574 0.50010711893112851193 0.50009559044022358082
BETA ARRAY:
0.00000000000000000000 0.14283269930637639902 0.25270170809998165307 0.25725886860720238245
0.25270050350689276906 0.25128362593553182982 0.25076232590575815304 0.25050819610431675964
0.25036364302667121891 0.25027327513089206076 0.25021293836440786868 0.25017062635934526958
0.25013979938502105461 0.25011664121026966153 0.25009880081027849301 0.25008476472688635592
0.25007352251880625840 0.25006437851030636731 0.25005684096299352464 0.25005055427519361687
TAB POINT NR., T VALUE, P0 VALUE:
74 4.71789464571306181067 1.56720984963357692869
ALPHA ARRAY:
0.10365395345625418346 0.43594097307964098210 0.51907924425154173453 0.50899223875415585767
0.50364145502594378822 0.50196145272481203947 0.50124131709231357726 0.50085920323732685354
0.50063070332324422762 0.50048288890596752373 0.50038167814217815121 0.50030930885610428030
0.50025575928035150891 0.50021501816893383748 0.50018329921316180631 0.50015811998534563779
[...]
0.03863281592258132865 0.04897603312366978711 0.05931292161166772470 0.06964629936221431188
0.07997752718575887826 0.09030734294510452796 0.10063618146580748452 0.11096431563972010035
0.12129192539456931265 0.13161913417734423256 0.14194602950396129234 0.15227267511341826619
0.16259911797516273480 0.17292538596039124927 0.18325141434550801004 0.19357639933255762362
TAB POINT NR., T VALUE, P0 VALUE:
660 97.04308744372580323913 3.33402368672254846952
ALPHA ARRAY:
0.00515235049884356148 0.02576175249421780741 0.04637115448959205334 0.06698055648496629927
0.08758995848034054520 0.10819936047571479113 0.12880876247108903706 0.14941816446646328299
0.17002756646183752892 0.19063696845721177468 0.21124637045258600983 0.23185577244795972895
0.25246517444331374105 0.27307457643807067639 0.29368397841836011151 0.31429338011672251453
0.33490277738220051177 0.35551211835470900023 0.37612088291915233162 0.39672491109911726509
BETA ARRAY:
0.00000000000000000000 0.00728652395356434643 0.01784826568479979688 0.02822058592389613915
0.03855666060649282713 0.04887948863955119894 0.05919600043505660345 0.06950900841368618191
0.07981987070337836149 0.09012932371241698181 0.10043780140920413768 0.11074557614765145522
0.12105282750080181430 0.13135967867230579652 0.14166621700575692798 0.15197250611846443995
0.16227859295190759563 0.17258450616554467082 0.18289018992498453141 0.19319491392957113423
TAB POINT NR., T VALUE, P0 VALUE:
661 97.23441321626975878493 3.33566577583666126601
ALPHA ARRAY:
0.00514221234500479760 0.02571106172502398798 0.04627991110504317837 0.06684876048506236876
0.08741760986508155915 0.10798645924510074954 0.12855530862511993992 0.14912415800513913031
0.16969300738515832070 0.19026185676517751094 0.21083070614519669203 0.23139955552521542573
0.25196840490521698098 0.27253725428469512473 0.29310610365141563357 0.31367495276798162508
0.33424379792534801815 0.35481259245251914174 0.37538086464671191379 0.39594480956220937504
BETA ARRAY:
0.00000000000000000000 0.00727218643890814168 0.01781314608971241988 0.02816505696840665342
0.03848079361009470416 0.04878330966735217894 0.05907952191536256517 0.06937223724087174485
0.07966281109946307620 0.08995197845040786150 0.10024017240819920352 0.11052766479084461432
0.12081463481804570022 0.13110120545103485153 0.14138746386171233549 0.15167347354571684254
0.16195928140982620584 0.17224491681504158788 0.18253033197523718416 0.19281486375995068819
TAB POINT NR., T VALUE, P0 VALUE:
662 97.42576749172139508450 3.33730568750275826903
ALPHA ARRAY:
0.00513211250855669915 0.02566056254278349574 0.04618901257701029234 0.06671746261123708893
0.08724591264546388553 0.10777436267969068213 0.12830281271391747872 0.14883126274814427532
0.16935971278237107191 0.18988816281659786838 0.21041661285082465696 0.23094506288505105771
0.25147351291926248636 0.27200196295301515563 0.29253041297552002509 0.31305886277610726663
0.33358730904136472214 0.35411570978114640214 0.37464363732646235160 0.39516761266849769487
BETA ARRAY:
0.00000000000000000000 0.00725790311322549075 0.01777815922995993488 0.02810973788590928967
0.03840521335479223167 0.04868749420583865071 0.05896348362897078584 0.06923598299791888303
0.07950634510601146036 0.08977530346898385968 0.10004329035064756079 0.11031057703513142325
0.12057734239013121549 0.13084370913537654883 0.14110976427170327980 0.15137557117314638519
0.16164117670579849126 0.17190661085410228614 0.18217183311612075485 0.19243624172682448326
TAB POINT NR., T VALUE, P0 VALUE:
663 97.61715013613062350842 3.33894342781448731418
ALPHA ARRAY:
0.00512205078003949136 0.02561025390019745678 0.04609845702035542221 0.06658666014051338763
0.08707486326067135306 0.10756306638082931849 0.12805126950098728391 0.14853947262114524934
0.16902767574130321476 0.18951587886146118008 0.21000408198161913860 0.23049228510177676096
0.25098048822192133612 0.27146869134166388395 0.29195689445149158274 0.31244509736449099011
0.33293329712136286134 0.35342145595316073049 0.37390918622906104889 0.39439330805078133055
BETA ARRAY:
0.00000000000000000000 0.00724367368029553936 0.01774330437995239776 0.02805462752914561252
0.03832991827313198257 0.04859204026790071477 0.05884788316937166914 0.06910024285906074484
0.07935046947808663626 0.08959929510409536436 0.09984715115342651288 0.11009430837834467841
0.12034094529586793035 0.13058718438513360849 0.14083311247654090838 0.15107879282263106627
0.16132427224349884898 0.17156958127671077994 0.18181468601051394137 0.19205904072193705187
TAB POINT NR., T VALUE, P0 VALUE:
664 97.80856101634417084623 3.34057900284145312341
ALPHA ARRAY:
0.00511202695146949517 0.02556013475734747586 0.04600824256322545654 0.06645635036910343723
0.08690445817498141792 0.10735256598085939860 0.12780067378673737929 0.14824878159261535998
0.16869688939849334066 0.18914499720437132126 0.20959310501024929599 0.23004121281612697939
0.25048932062199329468 0.27093742842750735637 0.29138553622428313449 0.31183364384651851656
0.33228174865178689974 0.35272981667676278334 0.37317749668389988181 0.39362188316093153200
BETA ARRAY:
0.00000000000000000000 0.00722949784598494785 0.01770858081921321001 0.02799972475894209590
0.03825490680870661877 0.04849694588043194531 0.05873271814701466756 0.06896501401844409879
0.07919518099361930294 0.08942394971751389323 0.09965175076218776626 0.10987885435004465129
0.12010543864874581181 0.13033162589774194116 0.14055750275762196322 0.15078313235958143513
0.16100856147300550964 0.17123382112529519773 0.18145888336473395337 0.19168325363046321133
TAB POINT NR., T VALUE, P0 VALUE:
665 98.00000000000000000000 3.34221241862932987672
ALPHA ARRAY:
0.00510204081632653061 0.02551020408163265306 0.04591836734693877551 0.06632653061224489796
0.08673469387755102041 0.10714285714285714286 0.12755102040816326531 0.14795918367346938776
0.16836734693877551020 0.18877551020408163257 0.20918367346938774989 0.22959183673469361476
0.24999999999998957597 0.27040816326497694500 0.29081632652226436167 0.31122448962480645042
0.33163265021365633286 0.35204077775549114499 0.37244855408230272443 0.39285332529064408441
BETA ARRAY:
0.00000000000000000000 0.00721537531823007678 0.01767398783233548259 0.02794502844414112824
0.03818017741606062638 0.04840220908420988773 0.05861798618916355775 0.06883029368995939523
0.07904047645321258949 0.08924926369661174190 0.09945708515111187627 0.10966421051124833348
0.11987081759663926907 0.13007702840794949659 0.14028292943658246792 0.15048858369256970846
0.16069403789041286104 0.17089932349040241804 0.18110441792888219251 0.19130887333543561303
TAB POINT NR., T VALUE, P0 VALUE:
666 98.19146695552177416911 3.34384368119997325275
ALPHA ARRAY:
0.00509209216954144524 0.02546046084770722620 0.04582882952587300716 0.06619719820403878813
0.08656556688220456909 0.10693393556037035005 0.12730230423853613101 0.14767067291670191198
0.16803904159486769294 0.18840741027303347383 0.20877577895119925037 0.22914414762936480818
0.24951251630752173940 0.26988088498540837170 0.29024925365651121714 0.31061762219044608818
0.33098598848181058998 0.35135432508788646112 0.37172234388040263452 0.39208762159072506989
BETA ARRAY:
0.00000000000000000000 0.00720130580701934956 0.01763952470893883332 0.02789053746153270315
0.03810572856059698737 0.04830782793377774342 0.05850368493975315361 0.06869607910707251632
0.07888635267994884708 0.08907523345414382143 0.09926315032266513236 0.10945037245416137139
0.11963707732151413915 0.12982338668749830244 0.14000938687495485144 0.15019514077296250551
0.16038069503744679011 0.17056608151036781468 0.18075128249712688548 0.19093589272181235184
TAB POINT NR., T VALUE, P0 VALUE:
667 98.38296175211336416993 3.34547279655153193989
ALPHA ARRAY:
0.00508218080748376638 0.02541090403741883188 0.04573962726735389739 0.06606835049728896290
0.08639707372722402840 0.10672579695715909391 0.12705452018709415942 0.14738324341702922492
0.16771196664696429043 0.18804068987689935588 0.20836941310683441757 0.22869813633676928978
0.24902685956669664887 0.26935558279638728852 0.28968430602010236318 0.31001302912225429220
0.33034175022415651835 0.35067044466711685436 0.37099885160172336997 0.39132475908899867268
BETA ARRAY:
0.00000000000000000000 0.00718728902437579000 0.01760519074362661291 0.02783625069578678782
0.03803155871848477719 0.04821380049732722830 0.05838981205924744101 0.06856236752265819525
0.07873280651919835782 0.08890185542803166027 0.09906994230735885542 0.10923733580191266066
0.11940421303913757966 0.12957069554480965763 0.13973686947382846995 0.14990279759455716841
0.16006852650108309050 0.17023408837098089191 0.18039946990792809494 0.19056430468020952618
TAB POINT NR., T VALUE, P0 VALUE:
668 98.57448425975339853709 3.34709977065855861935
ALPHA ARRAY:
0.00507230652794947566 0.02536153263974737828 0.04565075875154528091 0.06593998486334318354
0.08622921097514108617 0.10651843708693898879 0.12680766319873689142 0.14709688931053479405
0.16738611542233269667 0.18767534153413059925 0.20796456764592849859 0.22825379375772623381
0.24854301986951742660 0.26883224598110134096 0.28912147208742255373 0.30941069808603139482
0.32969992230091888206 0.34998912258056862404 0.37027806283948819942 0.39056472470692142845
BETA ARRAY:
0.00000000000000000000 0.00717332468433973298 0.01757098523594355475 0.02778216703938636149
0.03795766637656767794 0.04812012485658259219 0.05827636522449911823 0.06842915620883508605
0.07857983483842993908 0.08872912608114954634 0.09887745716351108010 0.10902509620829157028
0.11917221999879083595 0.12931894982467244465 0.13946537167351348926 0.14961154819322163359
0.15975752591316897533 0.16990333730514751778 0.18004897304421011702 0.19019410211032214000
TAB POINT NR., T VALUE, P0 VALUE:
669 98.76603434918985605576 3.34872460947212042197
ALPHA ARRAY:
0.00506246913014890456 0.02531234565074452282 0.04556222217134014107 0.06581209869193575932
0.08606197521253137757 0.10631185173312699583 0.12656172825372261408 0.14681160477431823233
0.16706148129491385059 0.18731135781550946880 0.20756123433610508422 0.22781111085670055750
0.24806098737729033444 0.26831086389769864126 0.28856074041347288571 0.30881061683382609387
0.32906049166389426060 0.34931034500940589427 0.36955996325867736596 0.38980750527498314920
BETA ARRAY:
0.00000000000000000000 0.00715941250295170608 0.01753690749033384383 0.02772828539256111653
0.03788405003227339682 0.04802679910668578563 0.05816334212861052611 0.06829644245680246533
0.07842743452702342181 0.08855704190111278531 0.09868569097701059518 0.10881364935748776682
0.11894109348298485055 0.12906814440793452595 0.13919488795320809028 0.14932138664653781981
0.15944768695004772642 0.16957382159254939827 0.17969978483348588614 0.18982527792405530923
TAB POINT NR., T VALUE, P0 VALUE:
670 98.95761189193470037696 3.35034731891990886019
ALPHA ARRAY:
0.00505266841469474957 0.02526334207347374784 0.04547401573225274611 0.06568468939103174438
0.08589536304981074265 0.10610603670858974092 0.12631671036736873919 0.14652738402614773746
0.16673805768492673572 0.18694873134370573396 0.20715940500248472979 0.22737007866126360253
0.24758075232003751632 0.26779142597865258006 0.28800209963318784518 0.30821277320320729734
0.32842344535570868932 0.34863409822810256299 0.36884453859785405668 0.38905308754697069894
BETA ARRAY:
0.00000000000000000000 0.00714555219823548050 0.01750295681609959996 0.02767460466322181473
0.03781070819352397970 0.04793382135608276163 0.05805074048079595255 0.06816422357667854775
0.07827560249608398197 0.08838559940006805123 0.09849463986108331575 0.10860299096383360974
0.11871082880717868277 0.12881827421119718977 0.13892541283066896071 0.14903230707344849846
0.15913900333218650526 0.16924553455930137428 0.17935189824793764801 0.18945782504838637592
TAB POINT NR., T VALUE, P0 VALUE:
671 99.14921676025855637107 3.35196790490634923709
ALPHA ARRAY:
0.00504290418359020555 0.02521452091795102775 0.04538613765231184994 0.06555775438667267214
0.08572937112103349433 0.10590098785539431653 0.12607260458975513873 0.14624422132411596092
0.16641583805847678312 0.18658745479283760528 0.20675907152719842538 0.22693068826155913889
0.24710230499591553601 0.26727392173013290551 0.28744553846075907443 0.30761715511654287156
0.32778877050907934439 0.34796036860394961752 0.36813177467077731810 0.38830145821316685841
BETA ARRAY:
0.00000000000000000000 0.00713174349018128912 0.01746913252735977072 0.02762112376689529130
0.03773763937864700968 0.04784118972641089932 0.05793855800624529590 0.06803249689734039708
0.07812433567825830423 0.08821479511448580614 0.09830429995606096093 0.10839311677154908890
0.11848142131950070724 0.12856933418651261126 0.13865694086188503618 0.14874430363390761146
0.15883146882380734407 0.16891846957760706825 0.17900530630445782718 0.18909173642797724137
TAB POINT NR., T VALUE, P0 VALUE:
672 99.34084882718542787689 3.35358637331270953374
ALPHA ARRAY:
0.00503317624021721617 0.02516588120108608083 0.04529858616195494550 0.06543129112282381016
0.08556399608369267483 0.10569670104456153949 0.12582940600543040416 0.14596211096629926882
0.16609481592716813349 0.18622752088803699812 0.20636022584890586098 0.22649293080977463157
0.24662563577063964558 0.26675834073138299992 0.28689104568896578699 0.30702375058028524494
0.32715645434608053977 0.34728914259654061785 0.36742165736781903399 0.38755260391255270565
BETA ARRAY:
0.00000000000000000000 0.00711798610072921006 0.01743543394300942959 0.02756784162666009954
0.03766484211628768101 0.04774890235238753725 0.05782679244598907196 0.06790125976626541500
0.07797363102755255749 0.08804462560495476546 0.09811466742915201144 0.10818402255448927581
0.11825286640047256011 0.12832131932108429526 0.13838946664075445512 0.14845737052853400228
0.15852507723252133073 0.16859262006541335696 0.17866000206465370470 0.18872700502755500361
TAB POINT NR., T VALUE, P0 VALUE:
673 99.53250796648745650680 3.35520272999720877700
ALPHA ARRAY:
0.00502348438932483987 0.02511742194662419936 0.04521135950392355884 0.06530529706122291833
0.08539923461852227781 0.10549317217582163730 0.12558710973312099678 0.14568104729042035627
0.16577498484771971575 0.18586892240501907521 0.20596285996231843314 0.22605679751961771119
0.24615073507691372035 0.26624467263410328475 0.28633861018851175807 0.30643254768426381658
0.32652648417741427123 0.34662040675723790561 0.36671417265720084254 0.38680651124407825680
BETA ARRAY:
0.00000000000000000000 0.00710427975375271372 0.01740186038667947458 0.02751475717308278883
0.03759231494532173825 0.04765695738169960366 0.05771544155676474972 0.06777050954937439014
0.07782348551915216196 0.08787508745597838644 0.09792573847421492149 0.10797570411589426062
0.11802515946273580236 0.12807422463697046731 0.13812298479876469127 0.14817150199826852539
0.15821982240896599566 0.16826797948606410062 0.17831597863481923413 0.18836362383407782278
TAB POINT NR., T VALUE, P0 VALUE:
674 99.72419405267972117097 3.35681698079512488900
ALPHA ARRAY:
0.00501382843701773028 0.02506914218508865140 0.04512445593315957253 0.06517976968123049365
0.08523508342930141477 0.10529039717737233589 0.12534571092544325701 0.14540102467351417814
0.16545633842158509926 0.18551165216965602036 0.20556696591772694014 0.22562227966579779079
0.24567759341386579731 0.26573290716184068567 0.28578822090736881875 0.30584353460098411744
0.32589884740168551318 0.34595414772862187319 0.36600930658606571072 0.38606316677706256239
BETA ARRAY:
0.00000000000000000000 0.00709062417504237156 0.01736841118669672311 0.02746186934415480909
0.03752005641476927129 0.04756535297489433172 0.05760450311088440081 0.06764024363087608969
0.07767389614924332784 0.08770617727577335689 0.09773750931153355985 0.10776815728814154710
0.11779829595078126975 0.12782804519079038014 0.13785749000467582887 0.14788669232403449968
0.15791569824644590484 0.16794454134795351655 0.17797322916587705684 0.18800158585870183794
TAB POINT NR., T VALUE, P0 VALUE:
675 99.91590696101507798644 3.35842913151890202033
ALPHA ARRAY:
0.00500420819074472963 0.02502104095372364813 0.04503787371670256663 0.06505470647968148514
0.08507153924266040364 0.10508837200563932215 0.12510520476861824065 0.14512203753159715916
0.16513887029457607766 0.18515570305755499615 0.20517253582053391349 0.22518936858351277102
0.24520620134648915433 0.26522303410938409024 0.28523986687012678290 0.30525669958493366974
0.32527353150468244783 0.34529035224392542143 0.36530704528139780052 0.38532255706078103908
BETA ARRAY:
0.00000000000000000000 0.00707701909228972482 0.01733508567604439858 0.02740917708523003448
0.03744806508370935653 0.04747408730527104747 0.05749397489610364832 0.06751045941311337671
0.07752485993483634582 0.08753789169607006207 0.09754997618759485528 0.10756137793250087814
0.11757227134068107968 0.12758277607343350300 0.13759297696420694560 0.14760293582640147146
0.15761269868057645904 0.16762229920417954707 0.17763174685329353066 0.18764088413856391906
TAB POINT NR., T VALUE, P0 VALUE:
676 100.10764656747904023936 3.36003918795825736842
ALPHA ARRAY:
0.00499462345928757403 0.02497311729643787014 0.04495161113358816625 0.06493010497073846236
0.08490859880788875847 0.10488709264503905458 0.12486558648218935069 0.14484408031933964680
0.16482257415648994291 0.18480106799364023901 0.20477956183079053413 0.22475805566794077748
0.24473654950508886871 0.26471504334216573158 0.28469353717734973648 0.30467203097189448890
0.32465052405866178208 0.34462900712645554590 0.36460737495080324938 0.38458466863329453800
BETA ARRAY:
0.00000000000000000000 0.00706346423507131133 0.01730188319232300423 0.02735667934896289966
0.03737633952119553492 0.04738315855877401868 0.05738385471549190020 0.06738115431641083590
0.07737637391359060990 0.08737022737191500769 0.09736313537486862176 0.10735536193889146478
0.11734708113982326514 0.12733841240977156198 0.13732944041972556867 0.14732022686525225259
0.15731081768893089591 0.16730124665219753627 0.17729152493696935719 0.18728151173839405543
TAB POINT NR., T VALUE, P0 VALUE:
677 100.29941274878469807153 3.36164715588028748290
ALPHA ARRAY:
0.00498507405274970935 0.02492537026374854673 0.04486566647474738411 0.06480596268574622149
0.08474625889674505888 0.10468655510774389626 0.12462685131874273364 0.14456714752974157103
0.16450744374074040841 0.18444773995173924578 0.20438803616273808231 0.22432833237373687404
0.24426862858473379410 0.26420892479566843221 0.28414922100493861980 0.30408951717826217111
0.32402981272163928605 0.34397009928900381783 0.36391028188316354389 0.38384948802957150695
BETA ARRAY:
0.00000000000000000000 0.00704995933483284880 0.01726880307771158015 0.02730437509524714168
0.03730487830617211740 0.04729256493388635262 0.05727414038730385321 0.06725232577892389120
0.07722843514364135334 0.08720318098147517718 0.09717698317158953931 0.10715010522564159207
0.11712272088664900679 0.12709494935837339936 0.13706687514994017038 0.14703855983945319975
0.15701004929069048834 0.16698137733347449832 0.17695255670110818151 0.18692346175197025559
TAB POINT NR., T VALUE, P0 VALUE:
678 100.49120538236767756485 3.36325304102957405974
ALPHA ARRAY:
0.00497555978254521638 0.02487779891272608192 0.04478003804290694745 0.06468227717308781299
0.08458451630326867852 0.10448675543344954405 0.12438899456363040959 0.14429123369381127512
0.16419347282399214066 0.18409571195417300618 0.20399795108435387098 0.22390019021453469703
0.24380242934471389551 0.26370466847483864310 0.28360690760350003369 0.30350914670037150865
0.32341138523668566729 0.34331361573324736717 0.36321575244917228489 0.38311700178895159615
BETA ARRAY:
0.00000000000000000000 0.00703650412487357261 0.01723584467892933907 0.02725226329115514083
0.03723368002739130878 0.04720230464152493143 0.05716482974485225321 0.06712397125648939859
0.07708104070342807863 0.08703674922584430192 0.09699151590154126646 0.10694560373925057534
0.11689918615039243410 0.12685238211122262096 0.13680527596959566914 0.14675792918652770086
0.15671038754629792977 0.16666268493314423091 0.17661483547406534239 0.18656672730342796038
