#***********************************************************************
# This file is part of OpenMolcas.                                     *
#                                                                      *
# OpenMolcas is free software; you can redistribute it and/or modify   *
# it under the terms of the GNU Lesser General Public License, v. 2.1. *
# OpenMolcas is distributed in the hope that it will be useful, but it *
# is provided "as is" and without any express or implied warranties.   *
# For more details see the full text of the license in the file        *
# LICENSE or in <http://www.gnu.org/licenses/>.                        *
#***********************************************************************

# Taken from:
# Coursey, J.S., Schwab, D.J., Tsai, J.J., and Dragoset, R.A.
# "Atomic Weights and Isotopic Compositions with Relative Atomic Masses"
# National Institute of Standards and Technology, Gaithersburg, MD.
# [https://www.nist.gov/pml/data/Comp]
# Last updated: January 2022 (Version 4.1, July 2015)

# Rows with "*" in the notes column are modified:
#  - treat H(3) and C(14) as natural (assign a non_zero abundance)
#  - select most stable isotope for elements 95-118 (data from Wikipedia)

             Relative           Isotopic      Standard
Isotope      Atomic Mass        Composition   Atomic Weight    Notes
_________________________________________________________________________
1   H   1    1.00782503223(9)   0.999885(70)  [1.00784,1.00811]  m
    D   2    2.01410177812(12)  0.000115(70)
    T   3    3.0160492779(24)      1e-8                          *
    H   4    4.02643(11)
        5    5.035311(96)
        6    6.04496(27)
        7    7.0527(11#)
_________________________________________________________________________
2   He  3    3.0160293201(25)   0.00000134(3)  4.002602(2)      g,r
        4    4.00260325413(6)   0.99999866(3)
        5    5.012057(21)
        6    6.018885891(57)
        7    7.0279907(81)
        8    8.033934390(95)
        9    9.043946(50)
        10   10.05279(11)
_________________________________________________________________________
3   Li  3    3.0308(21#)                      [6.938,6.997]    m
        4    4.02719(23)
        5    5.012538(54)
        6    6.0151228874(16)   0.0759(4)
        7    7.0160034366(45)   0.9241(4)
        8    8.022486246(50)
        9    9.02679019(20)
        10   10.035483(14)
        11   11.04372358(66)
        12   12.052517(16)
        13   13.06263(38)
_________________________________________________________________________
4   Be  5    5.0399(22#)                      9.0121831(5)
        6    6.0197264(58)
        7    7.016928717(76)
        8    8.005305102(37)
        9    9.012183065(82)    1
        10   10.013534695(86)
        11   11.02166108(26)
        12   12.0269221(20)
        13   13.036135(11)
        14   14.04289(14)
        15   15.05342(43#)
        16   16.06167(18)
_________________________________________________________________________
5   B   6    6.0508(22#)                      [10.806,10.821]  m
        7    7.029712(27)
        8    8.0246073(11)
        9    9.01332965(97)
        10   10.01293695(41)    0.199(7)
        11   11.00930536(45)    0.801(7)
        12   12.0143527(14)
        13   13.0177802(12)
        14   14.025404(23)
        15   15.031088(23)
        16   16.039842(26)
        17   17.04699(18)
        18   18.05566(18)
        19   19.06310(43#)
        20   20.07207(75#)
        21   21.08129(97#)
_________________________________________________________________________
6   C   8    8.037643(20)                     [12.0096,12.0116]
        9    9.0310372(23)
        10   10.01685331(42)
        11   11.0114336(10)
        12   12.0000000(00)     0.9893(8)
        13   13.00335483507(23)  0.0107(8)
        14   14.0032419884(40)     1e-8                          *
        15   15.01059926(86)
        16   16.0147013(38)
        17   17.022577(19)
        18   18.026751(32)
        19   19.03480(11)
        20   20.04032(26)
        21   21.04900(43#)
        22   22.05753(26)
        23   23.0689(11#)
_________________________________________________________________________
7   N   10   10.04165(43)                     [14.00643,14.00728]
        11   11.026091(50)
        12   12.0186132(11)
        13   13.00573861(29)
        14   14.00307400443(20)  0.99636(20)
        15   15.00010889888(64)  0.00364(20)
        16   16.0061019(25)
        17   17.008449(16)
        18   18.014078(20)
        19   19.017022(18)
        20   20.023366(60)
        21   21.02711(10)
        22   22.03439(21)
        23   23.04114(32#)
        24   24.05039(43#)
        25   25.06010(54#)
_________________________________________________________________________
8   O   12   12.034262(26)                    [15.99903,15.99977]
        13   13.024815(10)
        14   14.00859636(12)
        15   15.00306562(53)
        16   15.99491461957(17)  0.99757(16)
        17   16.99913175650(69)  0.00038(1)
        18   17.99915961286(76)  0.00205(14)
        19   19.0035780(28)
        20   20.00407535(95)
        21   21.008655(13)
        22   22.009966(61)
        23   23.015696(97)
        24   24.01986(12)
        25   25.02936(12)
        26   26.03729(17)
        27   27.04772(54#)
        28   28.05591(75#)
_________________________________________________________________________
9   F   14   14.034315(44)                    18.998403163(6)
        15   15.018043(67)
        16   16.0114657(89)
        17   17.00209524(27)
        18   18.00093733(50)
        19   18.99840316273(92)  1
        20   19.999981252(31)
        21   20.9999489(19)
        22   22.002999(13)
        23   23.003557(54)
        24   24.008115(78)
        25   25.012199(81)
        26   26.020038(83)
        27   27.02644(20)
        28   28.03534(21)
        29   29.04254(54#)
        30   30.05165(64#)
        31   31.05971(56#)
_________________________________________________________________________
10  Ne  16   16.025750(22)                    20.1797(6)       g,m
        17   17.01771396(38)
        18   18.00570870(39)
        19   19.00188091(17)
        20   19.9924401762(17)  0.9048(3)
        21   20.993846685(41)   0.0027(1)
        22   21.991385114(18)   0.0925(3)
        23   22.99446691(11)
        24   23.99361065(55)
        25   24.997789(48)
        26   26.000515(20)
        27   27.007553(70)
        28   28.01212(10)
        29   29.01975(11)
        30   30.02473(30)
        31   31.0331(17)
        32   32.03972(54#)
        33   33.04938(64#)
        34   34.05673(55#)
_________________________________________________________________________
11  Na  18   18.02688(12)                     22.98976928(2)
        19   19.013880(11)
        20   20.0073544(12)
        21   20.99765469(30)
        22   21.99443741(18)
        23   22.9897692820(19)  1
        24   23.990962950(38)
        25   24.9899540(13)
        26   25.9926346(38)
        27   26.9940765(40)
        28   27.998939(11)
        29   29.0028771(79)
        30   30.0090979(51)
        31   31.013163(25)
        32   32.02019(13)
        33   33.02573(64#)
        34   34.03359(54#)
        35   35.04062(63#)
        36   36.04929(64#)
        37   37.05705(65#)
_________________________________________________________________________
12  Mg  19   19.034169(54)                    [24.304,24.307]
        20   20.018850(29)
        21   21.011716(18)
        22   21.99957065(34)
        23   22.99412421(74)
        24   23.985041697(14)   0.7899(4)
        25   24.985836976(50)   0.1000(1)
        26   25.982592968(31)   0.1101(3)
        27   26.984340624(53)
        28   27.9838767(22)
        29   28.988617(12)
        30   29.9904629(37)
        31   30.9966480(33)
        32   31.9991102(34)
        33   33.0053271(31)
        34   34.008935(31)
        35   35.01679(19)
        36   36.02188(49)
        37   37.03037(54#)
        38   38.03658(54#)
        39   39.04538(55#)
        40   40.05218(64#)
_________________________________________________________________________
13  Al  21   21.02897(43#)                    26.9815385(7)
        22   22.01954(43#)
        23   23.00724435(37)
        24   23.9999489(12)
        25   24.99042810(51)
        26   25.986891904(69)
        27   26.98153853(11)    1
        28   27.98191021(13)
        29   28.9804565(10)
        30   29.982960(15)
        31   30.983945(22)
        32   31.988085(13)
        33   32.990909(81)
        34   33.996705(74)
        35   34.999764(75)
        36   36.00639(11)
        37   37.01053(13)
        38   38.01740(27)
        39   39.02254(54#)
        40   40.03003(54#)
        41   41.03638(64#)
        42   42.04384(64#)
        43   43.05147(75#)
_________________________________________________________________________
14  Si  22   22.03579(54#)                    [28.084,28.086]
        23   23.02544(54#)
        24   24.011535(21)
        25   25.004109(11)
        26   25.99233384(11)
        27   26.98670481(15)
        28   27.97692653465(44)  0.92223(19)
        29   28.97649466490(52)  0.04685(8)
        30   29.973770136(23)   0.03092(11)
        31   30.975363194(46)
        32   31.97415154(32)
        33   32.97797696(75)
        34   33.978576(15)
        35   34.984583(41)
        36   35.986695(77)
        37   36.992921(89)
        38   37.995523(75)
        39   39.002491(97)
        40   40.00583(25)
        41   41.01301(40)
        42   42.01778(54#)
        43   43.02480(64#)
        44   44.03061(64#)
        45   45.03995(75#)
_________________________________________________________________________
15  P   24   24.03577(54#)                    30.973761998(5)
        25   25.02119(43#)
        26   26.01178(21#)
        27   26.999224(28)
        28   27.9923266(12)
        29   28.98180079(60)
        30   29.97831375(34)
        31   30.97376199842(70)  1
        32   31.973907643(42)
        33   32.9717257(12)
        34   33.97364589(87)
        35   34.9733141(20)
        36   35.978260(14)
        37   36.979607(41)
        38   37.984252(93)
        39   38.986227(98)
        40   39.99133(12)
        41   40.994654(86)
        42   42.00108(23)
        43   43.00502(40)
        44   44.01121(54#)
        45   45.01645(64#)
        46   46.02446(75#)
        47   47.03139(86#)
_________________________________________________________________________
16  S   26   26.02907(64#)                    [32.059,32.076]
        27   27.01828(43#)
        28   28.00437(17)
        29   28.996611(54)
        30   29.98490703(40)
        31   30.97955701(25)
        32   31.9720711744(14)  0.9499(26)
        33   32.9714589098(15)  0.0075(2)
        34   33.967867004(47)   0.0425(24)
        35   34.969032310(43)
        36   35.96708071(20)    0.0001(1)
        37   36.97112551(21)
        38   37.9711633(77)
        39   38.975134(54)
        40   39.9754826(43)
        41   40.9795935(44)
        42   41.9810651(30)
        43   42.9869076(53)
        44   43.9901188(56)
        45   44.99572(74)
        46   46.00004(54#)
        47   47.00795(54#)
        48   48.01370(64#)
        49   49.02276(72#)
_________________________________________________________________________
17  Cl  28   28.02954(64#)                    [35.446,35.457]  m
        29   29.01478(43#)
        30   30.00477(21#)
        31   30.992414(54)
        32   31.98568464(60)
        33   32.97745199(42)
        34   33.973762485(52)
        35   34.968852682(37)   0.7576(10)
        36   35.968306809(38)
        37   36.965902602(55)   0.2424(10)
        38   37.96801044(11)
        39   38.9680082(19)
        40   39.970415(34)
        41   40.970685(74)
        42   41.97325(15)
        43   42.97389(10)
        44   43.97787(20)
        45   44.98029(11)
        46   45.98517(17)
        47   46.98916(43#)
        48   47.99564(54#)
        49   49.00123(64#)
        50   50.00905(64#)
        51   51.01554(75#)
_________________________________________________________________________
18  Ar  30   30.02307(54#)                    39.948(1)        g,r
        31   31.01212(22#)
        32   31.9976378(19)
        33   32.98992555(43)
        34   33.980270090(83)
        35   34.97525759(80)
        36   35.967545105(28)   0.003336(21)
        37   36.96677633(22)
        38   37.96273211(21)    0.000629(7)
        39   38.9643130(54)
        40   39.9623831237(24)  0.996035(25)
        41   40.96450057(37)
        42   41.9630457(62)
        43   42.9656361(57)
        44   43.9649238(17)
        45   44.96803973(55)
        46   45.968083(44)
        47   46.972935(96)
        48   47.97591(32#)
        49   48.98190(43#)
        50   49.98613(54#)
        51   50.99370(64#)
        52   51.99896(64#)
        53   53.00729(75#)
_________________________________________________________________________
19  K   32   32.02265(54#)                    39.0983(1)
        33   33.00756(21#)
        34   33.99869(32#)
        35   34.98800541(55)
        36   35.98130201(37)
        37   36.97337589(10)
        38   37.96908112(21)
        39   38.9637064864(49)  0.932581(44)
        40   39.963998166(60)   0.000117(1)
        41   40.9618252579(41)  0.067302(44)
        42   41.96240231(11)
        43   42.96073470(44)
        44   43.96158699(45)
        45   44.96069149(56)
        46   45.96198159(78)
        47   46.9616616(15)
        48   47.96534119(83)
        49   48.96821075(86)
        50   49.9723800(83)
        51   50.975828(14)
        52   51.98224(43#)
        53   52.98746(54#)
        54   53.99463(64#)
        55   55.00076(75#)
        56   56.00851(86#)
_________________________________________________________________________
20  Ca  34   34.01487(32#)                    40.078(4)        g
        35   35.00514(21#)
        36   35.993074(43)
        37   36.98589785(68)
        38   37.97631922(21)
        39   38.97071081(64)
        40   39.962590863(22)   0.96941(156)
        41   40.96227792(15)
        42   41.95861783(16)    0.00647(23)
        43   42.95876644(24)    0.00135(10)
        44   43.95548156(35)    0.02086(110)
        45   44.95618635(39)
        46   45.9536890(24)     0.00004(3)
        47   46.9545424(24)
        48   47.95252276(13)    0.00187(21)
        49   48.95566274(23)
        50   49.9574992(17)
        51   50.960989(24)
        52   51.963217(64)
        53   52.96945(43#)
        54   53.97340(54#)
        55   54.98030(54#)
        56   55.98508(64#)
        57   56.99262(64#)
        58   57.99794(75#)
_________________________________________________________________________
21  Sc  36   36.01648(32#)                    44.955908(5)
        37   37.00374(32#)
        38   37.99512(21#)
        39   38.984785(26)
        40   39.9779673(30)
        41   40.969251105(88)
        42   41.96551653(18)
        43   42.9611505(20)
        44   43.9594029(19)
        45   44.95590828(77)    1
        46   45.95516826(78)
        47   46.9524037(21)
        48   47.9522236(53)
        49   48.9500146(29)
        50   49.952176(16)
        51   50.953592(21)
        52   51.95688(15)
        53   52.95909(29)
        54   53.96393(39)
        55   54.96782(50)
        56   55.97345(43#)
        57   56.97777(54#)
        58   57.98403(64#)
        59   58.98894(64#)
        60   59.99565(75#)
        61   61.00100(86#)
_________________________________________________________________________
22  Ti  38   38.01145(32#)                    47.867(1)
        39   39.00236(22#)
        40   39.99050(17)
        41   40.983148(30)
        42   41.97304903(30)
        43   42.9685225(78)
        44   43.95968995(75)
        45   44.95812198(95)
        46   45.95262772(35)    0.0825(3)
        47   46.95175879(38)    0.0744(2)
        48   47.94794198(38)    0.7372(3)
        49   48.94786568(39)    0.0541(2)
        50   49.94478689(39)    0.0518(2)
        51   50.94661065(65)
        52   51.9468930(76)
        53   52.94973(11)
        54   53.95105(13)
        55   54.95527(17)
        56   55.95791(15)
        57   56.96364(27)
        58   57.96660(43#)
        59   58.97247(43#)
        60   59.97603(54#)
        61   60.98245(64#)
        62   61.98651(75#)
        63   62.99375(75#)
_________________________________________________________________________
23  V   40   40.01276(43#)                    50.9415(1)
        41   41.00021(32#)
        42   41.99182(32#)
        43   42.980766(46)
        44   43.97411(20)
        45   44.9657748(86)
        46   45.96019878(36)
        47   46.95490491(36)
        48   47.9522522(11)
        49   48.94851180(96)
        50   49.94715601(95)    0.00250(4)
        51   50.94395704(94)    0.99750(4)
        52   51.94477301(95)
        53   52.9443367(34)
        54   53.946439(16)
        55   54.94724(10)
        56   55.95048(19)
        57   56.95252(24)
        58   57.95672(14)
        59   58.95939(17)
        60   59.96431(24)
        61   60.96725(96)
        62   61.97265(32#)
        63   62.97639(43#)
        64   63.98264(43#)
        65   64.98750(54#)
        66   65.99398(64#)
_________________________________________________________________________
24  Cr  42   42.00670(43#)                    51.9961(6)
        43   42.99753(43#)
        44   43.98536(32#)
        45   44.979050(38)
        46   45.968359(21)
        47   46.9628974(75)
        48   47.9540291(79)
        49   48.9513333(25)
        50   49.94604183(94)    0.04345(13)
        51   50.94476502(94)
        52   51.94050623(63)    0.83789(18)
        53   52.94064815(62)    0.09501(17)
        54   53.93887916(61)    0.02365(7)
        55   54.94083843(64)
        56   55.9406531(20)
        57   56.9436130(20)
        58   57.94435(22)
        59   58.94859(26)
        60   59.95008(23)
        61   60.95442(14)
        62   61.95610(16)
        63   62.96165(49)
        64   63.96408(32#)
        65   64.96996(32#)
        66   65.97366(54#)
        67   66.98016(54#)
        68   67.98403(75#)
_________________________________________________________________________
25  Mn  44   44.00715(54#)                    54.938044(3)
        45   44.99449(43#)
        46   45.98609(43#)
        47   46.975775(34)
        48   47.96852(18)
        49   48.959595(11)
        50   49.95423778(95)
        51   50.94820847(94)
        52   51.9455639(20)
        53   52.94128889(68)
        54   53.9403576(12)
        55   54.93804391(48)    1
        56   55.93890369(49)
        57   56.9382861(16)
        58   57.9400666(29)
        59   58.9403911(25)
        60   59.9431366(25)
        61   60.9444525(25)
        62   61.94795(16#)
        63   62.9496647(40)
        64   63.9538494(38)
        65   64.9560198(40)
        66   65.960547(12)
        67   66.96424(43#)
        68   67.96962(54#)
        69   68.97366(64#)
        70   69.97937(75#)
        71   70.98368(75#)
_________________________________________________________________________
26  Fe  45   45.01442(43#)                    55.845(2)
        46   46.00063(54#)
        47   46.99185(54#)
        48   47.98023(43#)
        49   48.973429(26)
        50   49.962975(64)
        51   50.9568410(96)
        52   51.9481131(70)
        53   52.9453064(18)
        54   53.93960899(53)    0.05845(35)
        55   54.93829199(51)
        56   55.93493633(49)    0.91754(36)
        57   56.93539284(49)    0.02119(10)
        58   57.93327443(53)    0.00282(4)
        59   58.93487434(54)
        60   59.9340711(37)
        61   60.9367462(28)
        62   61.9367918(30)
        63   62.9402727(46)
        64   63.9409878(54)
        65   64.9450115(73)
        66   65.9462500(44)
        67   66.95054(23)
        68   67.95295(39)
        69   68.95807(43#)
        70   69.96102(54#)
        71   70.96672(64#)
        72   71.96983(75#)
        73   72.97572(75#)
        74   73.97935(86#)
_________________________________________________________________________
27  Co  47   47.01057(86#)                    58.933194(4)
        48   48.00093(86#)
        49   48.98891(75#)
        50   49.98091(64#)
        51   50.970647(52)
        52   51.96351(21#)
        53   52.9542041(19)
        54   53.94845987(54)
        55   54.94199720(57)
        56   55.93983880(63)
        57   56.93629057(66)
        58   57.9357521(13)
        59   58.93319429(56)    1
        60   59.93381630(56)
        61   60.93247662(95)
        62   61.934059(20)
        63   62.933600(20)
        64   63.935811(21)
        65   64.9364621(22)
        66   65.939443(15)
        67   66.9406096(69)
        68   67.94426(16)
        69   68.94614(20)
        70   69.94963(32)
        71   70.95237(50)
        72   71.95729(43#)
        73   72.96039(54#)
        74   73.96515(64#)
        75   74.96876(75#)
        76   75.97413(86#)
_________________________________________________________________________
28  Ni  48   48.01769(54#)                    58.6934(4)       r
        49   49.00770(86#)
        50   49.99474(86#)
        51   50.98611(86#)
        52   51.97480(75#)
        53   52.968190(27)
        54   53.957892(54)
        55   54.95133063(85)
        56   55.94212855(57)
        57   56.93979218(71)
        58   57.93534241(52)    0.68077(19)
        59   58.93434620(52)
        60   59.93078588(52)    0.26223(15)
        61   60.93105557(52)    0.011399(13)
        62   61.92834537(55)    0.036346(40)
        63   62.92966963(56)
        64   63.92796682(58)    0.009255(19)
        65   64.93008517(60)
        66   65.9291393(15)
        67   66.9315694(31)
        68   67.9318688(32)
        69   68.9356103(40)
        70   69.9364313(23)
        71   70.9405190(24)
        72   71.9417859(24)
        73   72.9462067(26)
        74   73.94798(43#)
        75   74.95250(32#)
        76   75.95533(54#)
        77   76.96055(54#)
        78   77.96336(86#)
        79   78.97025(86#)
_________________________________________________________________________
29  Cu  52   51.99671(86#)                    63.546(3)        r
        53   52.98459(86#)
        54   53.97666(54#)
        55   54.96604(17)
        56   55.95895(21#)
        57   56.94921250(66)
        58   57.94453305(70)
        59   58.93949748(67)
        60   59.9373645(18)
        61   60.9334576(10)
        62   61.93259541(75)
        63   62.92959772(56)    0.6915(15)
        64   63.92976434(56)
        65   64.92778970(71)    0.3085(15)
        66   65.92886903(72)
        67   66.9277303(13)
        68   67.9296109(17)
        69   68.9294293(15)
        70   69.9323921(12)
        71   70.9326768(16)
        72   71.9358203(15)
        73   72.9366744(21)
        74   73.9398749(66)
        75   74.9415226(25)
        76   75.9452750(72)
        77   76.94792(16#)
        78   77.95223(54)
        79   78.95502(43#)
        80   79.96089(64#)
        81   80.96587(86#)
        82   81.97244(86#)
_________________________________________________________________________
30  Zn  54   53.99204(75#)                    65.38(2)         r
        55   54.98398(75#)
        56   55.97254(54#)
        57   56.96506(22#)
        58   57.954591(54)
        59   58.94931266(89)
        60   59.94184210(69)
        61   60.939507(17)
        62   61.93433397(73)
        63   62.9332115(17)
        64   63.92914201(71)    0.4917(75)
        65   64.92924077(71)
        66   65.92603381(94)    0.2773(98)
        67   66.92712775(96)    0.0404(16)
        68   67.92484455(98)    0.1845(63)
        69   68.9265507(10)
        70   69.9253192(21)     0.0061(10)
        71   70.9277196(28)
        72   71.9268428(23)
        73   72.9295826(20)
        74   73.9294073(27)
        75   74.9328402(21)
        76   75.9331150(16)
        77   76.9368872(21)
        78   77.9382892(21)
        79   78.9426381(24)
        80   79.9445529(28)
        81   80.9504026(54)
        82   81.95426(32#)
        83   82.96056(54#)
        84   83.96521(64#)
        85   84.97226(75#)
_________________________________________________________________________
31  Ga  56   55.99536(64#)                    69.723(1)
        57   56.98320(32#)
        58   57.97478(21#)
        59   58.96353(18#)
        60   59.95729(21#)
        61   60.949399(41)
        62   61.94419025(75)
        63   62.9392942(14)
        64   63.9368404(15)
        65   64.93273459(88)
        66   65.9315894(34)
        67   66.9282025(13)
        68   67.9279805(16)
        69   68.9255735(13)     0.60108(9)
        70   69.9260219(13)
        71   70.92470258(87)    0.39892(9)
        72   71.92636747(88)
        73   72.9251747(18)
        74   73.9269457(32)
        75   74.9265002(26)
        76   75.9288276(21)
        77   76.9291543(26)
        78   77.9316088(20)
        79   78.9328523(20)
        80   79.9364208(31)
        81   80.9381338(35)
        82   81.9431765(26)
        83   82.9471203(28)
        84   83.95246(43#)
        85   84.95699(32#)
        86   85.96301(75#)
        87   86.96824(86#)
_________________________________________________________________________
32  Ge  58   57.99172(43#)                    72.630(8)
        59   58.98249(32#)
        60   59.97036(21#)
        61   60.96379(32#)
        62   61.95502(15#)
        63   62.949628(40)
        64   63.9416899(40)
        65   64.9393681(23)
        66   65.9338621(26)
        67   66.9327339(50)
        68   67.9280953(20)
        69   68.9279645(14)
        70   69.92424875(90)    0.2057(27)
        71   70.92495233(90)
        72   71.922075826(81)   0.2745(32)
        73   72.923458956(61)   0.0775(12)
        74   73.921177761(13)   0.3650(20)
        75   74.922858370(55)
        76   75.921402726(19)   0.0773(12)
        77   76.923549843(57)
        78   77.9228529(38)
        79   78.925360(40)
        80   79.9253508(22)
        81   80.9288329(22)
        82   81.9297740(24)
        83   82.9345391(26)
        84   83.9375751(34)
        85   84.9429697(40)
        86   85.94658(32#)
        87   86.95268(43#)
        88   87.95691(54#)
        89   88.96379(64#)
        90   89.96863(75#)
_________________________________________________________________________
33  As  60   59.99388(43#)                    74.921595(6)
        61   60.98112(32#)
        62   61.97361(32#)
        63   62.96390(21#)
        64   63.95743(33#)
        65   64.949611(91)
        66   65.9441488(61)
        67   66.93925111(48)
        68   67.9367741(20)
        69   68.932246(34)
        70   69.930926(54)
        71   70.9271138(45)
        72   71.9267523(44)
        73   72.9238291(41)
        74   73.9239286(18)
        75   74.92159457(95)    1
        76   75.92239202(95)
        77   76.9206476(18)
        78   77.921828(11)
        79   78.9209484(58)
        80   79.9224746(36)
        81   80.9221323(29)
        82   81.9247412(46)
        83   82.9252069(30)
        84   83.9293033(34)
        85   84.9321637(33)
        86   85.9367015(37)
        87   86.9402917(32)
        88   87.94555(21#)
        89   88.94976(32#)
        90   89.95563(64#)
        91   90.96039(64#)
        92   91.96674(75#)
_________________________________________________________________________
34  Se  64   63.97109(54#)                    78.971(8)        r
        65   64.96440(64#)
        66   65.95559(32#)
        67   66.949994(72)
        68   67.94182524(53)
        69   68.9394148(16)
        70   69.9335155(17)
        71   70.9322094(30)
        72   71.9271405(21)
        73   72.9267549(80)
        74   73.922475934(15)   0.0089(4)
        75   74.922522870(78)
        76   75.919213704(17)   0.0937(29)
        77   76.919914154(67)   0.0763(16)
        78   77.91730928(20)    0.2377(28)
        79   78.91849929(24)
        80   79.9165218(13)     0.4961(41)
        81   80.9179930(14)
        82   81.9166995(15)     0.0873(22)
        83   82.9191186(36)
        84   83.9184668(21)
        85   84.9222608(28)
        86   85.9243117(27)
        87   86.9286886(24)
        88   87.9314175(36)
        89   88.9366691(40)
        90   89.94010(35)
        91   90.94596(54#)
        92   91.94984(64#)
        93   92.95629(86#)
        94   93.96049(86#)
        95   94.96730(86#)
_________________________________________________________________________
35  Br  67   66.96465(54#)                    [79.901,79.907]
        68   67.95873(33#)
        69   68.950497(40)
        70   69.944792(16)
        71   70.9393422(58)
        72   71.9365886(72)
        73   72.9316715(78)
        74   73.9299102(63)
        75   74.9258105(46)
        76   75.924542(10)
        77   76.9213792(30)
        78   77.9211459(38)
        79   78.9183376(14)     0.5069(7)
        80   79.9185298(14)
        81   80.9162897(14)     0.4931(7)
        82   81.9168032(14)
        83   82.9151756(41)
        84   83.916496(28)
        85   84.9156458(33)
        86   85.9188054(33)
        87   86.9206740(34)
        88   87.9240833(34)
        89   88.9267046(35)
        90   89.9312928(36)
        91   90.9343986(38)
        92   91.9396316(72)
        93   92.94313(48)
        94   93.94890(43#)
        95   94.95301(21#)
        96   95.95903(32#)
        97   96.96344(43#)
        98   97.96946(43#)
_________________________________________________________________________
36  Kr  69   68.96518(43#)                    83.798(2)        g,m
        70   69.95604(21#)
        71   70.95027(14)
        72   71.9420924(86)
        73   72.9392892(71)
        74   73.9330840(22)
        75   74.9309457(87)
        76   75.9259103(43)
        77   76.9246700(21)
        78   77.92036494(76)    0.00355(3)
        79   78.9200829(38)
        80   79.91637808(75)    0.02286(10)
        81   80.9165912(15)
        82   81.91348273(94)    0.11593(31)
        83   82.91412716(32)    0.11500(19)
        84   83.9114977282(44)  0.56987(15)
        85   84.9125273(21)
        86   85.9106106269(41)  0.17279(41)
        87   86.91335476(26)
        88   87.9144479(28)
        89   88.9178355(23)
        90   89.9195279(20)
        91   90.9238063(24)
        92   91.9261731(29)
        93   92.9311472(27)
        94   93.934140(13)
        95   94.939711(20)
        96   95.943017(22)
        97   96.94909(14)
        98   97.95243(32#)
        99   98.95839(54#)
        100  99.96237(43#)
        101  100.96873(54#)
_________________________________________________________________________
37  Rb  71   70.96532(54#)                    85.4678(3)       g
        72   71.95908(54#)
        73   72.95053(11#)
        74   73.9442659(32)
        75   74.9385732(13)
        76   75.9350730(10)
        77   76.9304016(14)
        78   77.9281419(35)
        79   78.9239899(23)
        80   79.9225164(20)
        81   80.9189939(53)
        82   81.9182090(32)
        83   82.9151142(25)
        84   83.9143752(24)
        85   84.9117897379(54)  0.7217(2)
        86   85.91116743(21)
        87   86.9091805310(60)  0.2783(2)
        88   87.91131559(17)
        89   88.9122783(59)
        90   89.9147985(70)
        91   90.9165372(84)
        92   91.9197284(66)
        93   92.9220393(84)
        94   93.9263948(22)
        95   94.929260(22)
        96   95.9341334(36)
        97   96.9371771(21)
        98   97.9416869(37)
        99   98.94503(12)
        100  99.95003(21#)
        101  100.95404(23#)
        102  101.95952(32#)
        103  102.96392(43#)
_________________________________________________________________________
38  Sr  73   72.96570(43#)                    87.62(1)         g,r
        74   73.95617(11#)
        75   74.94995(24)
        76   75.941763(37)
        77   76.9379455(85)
        78   77.9321800(80)
        79   78.9297077(90)
        80   79.9245175(37)
        81   80.9232114(34)
        82   81.9183999(64)
        83   82.9175544(73)
        84   83.9134191(13)     0.0056(1)
        85   84.9129320(30)
        86   85.9092606(12)     0.0986(1)
        87   86.9088775(12)     0.0700(1)
        88   87.9056125(12)     0.8258(1)
        89   88.9074511(12)
        90   89.9077300(28)
        91   90.9101954(61)
        92   91.9110382(37)
        93   92.9140242(81)
        94   93.9153556(18)
        95   94.9193529(63)
        96   95.9217066(93)
        97   96.9263740(36)
        98   97.9286888(40)
        99   98.9328907(38)
        100  99.935770(10)
        101  100.940352(86)
        102  101.943791(75)
        103  102.94909(21#)
        104  103.95265(32#)
        105  104.95855(54#)
        106  105.96265(64#)
        107  106.96897(75#)
_________________________________________________________________________
39  Y   76   75.95856(54#)                    88.90584(2)
        77   76.949781(65#)
        78   77.94361(43#)
        79   78.93735(48)
        80   79.9343561(67)
        81   80.9294556(58)
        82   81.9269314(59)
        83   82.922485(20)
        84   83.9206721(46)
        85   84.916433(20)
        86   85.914886(15)
        87   86.9108761(17)
        88   87.9095016(20)
        89   88.9058403(24)     1
        90   89.9071439(24)
        91   90.9072974(28)
        92   91.9089451(99)
        93   92.909578(11)
        94   93.9115906(69)
        95   94.9128161(74)
        96   95.9158968(69)
        97   96.9182741(75)
        98   97.9223821(88)
        99   98.9241480(74)
        100  99.927715(12)
        101  100.9301477(79)
        102  101.9343277(44)
        103  102.937243(12)
        104  103.94196(43#)
        105  104.94544(54#)
        106  105.95056(54#)
        107  106.95452(54#)
        108  107.95996(64#)
        109  108.96436(75#)
_________________________________________________________________________
40  Zr  78   77.95566(54#)                    91.224(2)        g
        79   78.94948(43#)
        80   79.9404(16)
        81   80.93731(18)
        82   81.93135(22#)
        83   82.9292421(69)
        84   83.9233269(59)
        85   84.9214444(69)
        86   85.9162972(38)
        87   86.9148180(45)
        88   87.9102213(58)
        89   88.9088814(37)
        90   89.9046977(20)     0.5145(40)
        91   90.9056396(20)     0.1122(5)
        92   91.9050347(20)     0.1715(8)
        93   92.9064699(20)
        94   93.9063108(20)     0.1738(28)
        95   94.9080385(19)
        96   95.9082714(21)     0.0280(9)
        97   96.9109512(21)
        98   97.9127289(93)
        99   98.916667(11)
        100  99.9180006(89)
        101  100.9214480(91)
        102  101.9231409(97)
        103  102.927191(10)
        104  103.929436(10)
        105  104.934008(13)
        106  105.93676(21#)
        107  106.94174(32#)
        108  107.94487(43#)
        109  108.95041(54#)
        110  109.95396(64#)
        111  110.95968(75#)
        112  111.96370(75#)
_________________________________________________________________________
41  Nb  81   80.94960(43#)                    92.90637(2)
        82   81.94396(32#)
        83   82.93729(32)
        84   83.93449(32#)
        85   84.9288458(44)
        86   85.9257828(59)
        87   86.9206937(73)
        88   87.918222(61)
        89   88.913445(25)
        90   89.9112584(38)
        91   90.9069897(37)
        92   91.9071881(26)
        93   92.9063730(20)     1
        94   93.9072788(20)
        95   94.90683240(71)
        96   95.9080973(35)
        97   96.9080959(19)
        98   97.9103265(58)
        99   98.911613(13)
        100  99.9143276(88)
        101  100.9153103(42)
        102  101.9180772(35)
        103  102.9194572(44)
        104  103.9228925(37)
        105  104.9249465(45)
        106  105.9289317(46)
        107  106.9315937(87)
        108  107.9360748(88)
        109  108.93922(56)
        110  109.94403(21#)
        111  110.94753(32#)
        112  111.95247(32#)
        113  112.95651(43#)
        114  113.96201(54#)
        115  114.96634(54#)
_________________________________________________________________________
42  Mo  83   82.94988(43#)                    95.95(1)         g
        84   83.94149(43#)
        85   84.938261(17)
        86   85.9311748(40)
        87   86.9281962(31)
        88   87.9219678(41)
        89   88.9194682(42)
        90   89.9139309(38)
        91   90.9117453(67)
        92   91.90680796(84)    0.1453(30)
        93   92.90680958(84)
        94   93.90508490(48)    0.0915(9)
        95   94.90583877(47)    0.1584(11)
        96   95.90467612(47)    0.1667(15)
        97   96.90601812(49)    0.0960(14)
        98   97.90540482(49)    0.2439(37)
        99   98.90770851(52)
        100  99.9074718(11)     0.0982(31)
        101  100.9103414(11)
        102  101.9102834(91)
        103  102.913079(10)
        104  103.9137344(98)
        105  104.916969(10)
        106  105.918259(10)
        107  106.922106(10)
        108  107.924033(10)
        109  108.928424(12)
        110  109.930704(26)
        111  110.935654(14)
        112  111.93831(21#)
        113  112.94335(32#)
        114  113.94653(32#)
        115  114.95196(43#)
        116  115.95545(54#)
        117  116.96117(54#)
_________________________________________________________________________
43  Tc  85   84.95058(43#)                    [98]
        86   85.94493(32#)
        87   86.9380672(45)
        88   87.93378(16)
        89   88.9276487(41)
        90   89.9240739(11)
        91   90.9184254(25)
        92   91.9152698(33)
        93   92.9102460(14)
        94   93.9096536(44)
        95   94.9076536(55)
        96   95.9078680(55)
        97   96.9063667(40)
        98   97.9072124(36)
        99   98.9062508(10)
        100  99.9076539(15)
        101  100.907309(26)
        102  101.9092097(99)
        103  102.909176(11)
        104  103.911425(27)
        105  104.911655(38)
        106  105.914358(13)
        107  106.9154606(93)
        108  107.9184957(94)
        109  108.920256(10)
        110  109.923744(10)
        111  110.925901(11)
        112  111.9299458(60)
        113  112.9325690(36)
        114  113.93691(11#)
        115  114.93998(21#)
        116  115.94476(32#)
        117  116.94806(43#)
        118  117.95299(43#)
        119  118.95666(54#)
        120  119.96187(54#)
_________________________________________________________________________
44  Ru  87   86.95069(43#)                    101.07(2)        g
        88   87.94160(32#)
        89   88.93762(32#)
        90   89.9303444(40)
        91   90.9267419(24)
        92   91.9202344(29)
        93   92.9171044(22)
        94   93.9113429(34)
        95   94.910406(10)
        96   95.90759025(49)    0.0554(14)
        97   96.9075471(30)
        98   97.9052868(69)     0.0187(3)
        99   98.9059341(11)     0.1276(14)
        100  99.9042143(11)     0.1260(7)
        101  100.9055769(12)    0.1706(2)
        102  101.9043441(12)    0.3155(14)
        103  102.9063186(12)
        104  103.9054275(28)    0.1862(27)
        105  104.9077476(28)
        106  105.9073291(58)
        107  106.9099720(93)
        108  107.9101880(93)
        109  108.9133260(96)
        110  109.9140407(96)
        111  110.917570(10)
        112  111.918809(10)
        113  112.922844(39)
        114  113.9246136(38)
        115  114.928820(71)
        116  115.9312192(40)
        117  116.93610(63)
        118  117.93853(32#)
        119  118.94357(32#)
        120  119.94631(43#)
        121  120.95164(43#)
        122  121.95447(54#)
        123  122.95989(54#)
        124  123.96305(64#)
_________________________________________________________________________
45  Rh  89   88.95058(39#)                    102.90550(2)
        90   89.94422(43#)
        91   90.93688(43#)
        92   91.9323677(47)
        93   92.9259128(28)
        94   93.9217305(36)
        95   94.9158979(42)
        96   95.914453(11)
        97   96.911329(38)
        98   97.910708(13)
        99   98.9081282(73)
        100  99.908117(19)
        101  100.9061606(63)
        102  101.9068374(50)
        103  102.9054980(26)    1
        104  103.9066492(26)
        105  104.9056885(27)
        106  105.9072868(58)
        107  106.906748(13)
        108  107.908714(15)
        109  108.9087488(43)
        110  109.911079(19)
        111  110.9116423(74)
        112  111.914403(47)
        113  112.9154393(77)
        114  113.918718(77)
        115  114.9203116(78)
        116  115.924059(76)
        117  116.9260354(95)
        118  117.930340(26)
        119  118.932557(10)
        120  119.93686(21#)
        121  120.93942(32#)
        122  121.94399(32#)
        123  122.94685(43#)
        124  123.95151(43#)
        125  124.95469(54#)
        126  125.95946(54#)
_________________________________________________________________________
46  Pd  91   90.95032(54#)                    106.42(1)        g
        92   91.94088(54#)
        93   92.93651(43#)
        94   93.9290376(46)
        95   94.9248898(33)
        96   95.9182151(45)
        97   96.9164720(52)
        98   97.9126983(51)
        99   98.9117748(54)
        100  99.908505(19)
        101  100.9082864(49)
        102  101.9056022(28)    0.0102(1)
        103  102.9060809(27)
        104  103.9040305(14)    0.1114(8)
        105  104.9050796(12)    0.2233(8)
        106  105.9034804(12)    0.2733(3)
        107  106.9051282(13)
        108  107.9038916(12)    0.2646(9)
        109  108.9059504(12)
        110  109.90517220(75)   0.1172(9)
        111  110.90768968(86)
        112  111.9073297(70)
        113  112.9102610(75)
        114  113.9103686(75)
        115  114.913659(15)
        116  115.9142970(77)
        117  116.9179547(78)
        118  117.9190667(27)
        119  118.9233402(89)
        120  119.9245511(25)
        121  120.9289503(36)
        122  121.930632(21)
        123  122.93514(21#)
        124  123.93714(32#)
        125  124.94179(43#)
        126  125.94416(54#)
        127  126.94907(54#)
        128  127.95183(64#)
_________________________________________________________________________
47  Ag  93   92.95033(54#)                    107.8682(2)      g
        94   93.94373(69#)
        95   94.93602(43#)
        96   95.930744(97)
        97   96.92397(12)
        98   97.921560(35)
        99   98.9176458(67)
        100  99.9161154(54)
        101  100.9126840(52)
        102  101.9117047(88)
        103  102.9089631(41)
        104  103.9086239(45)
        105  104.9065256(49)
        106  105.9066636(32)
        107  106.9050916(26)    0.51839(8)
        108  107.9059503(26)
        109  108.9047553(14)    0.48161(8)
        110  109.9061102(14)
        111  110.9052959(16)
        112  111.9070486(26)
        113  112.906573(18)
        114  113.9088230(49)
        115  114.908767(20)
        116  115.9113868(35)
        117  116.911774(15)
        118  117.9145955(27)
        119  118.915570(16)
        120  119.9187848(48)
        121  120.920125(13)
        122  121.923664(41)
        123  122.925337(33)
        124  123.92893(27)
        125  124.93105(64)
        126  125.93475(21#)
        127  126.93711(21#)
        128  127.94106(32#)
        129  128.94395(32#)
        130  129.95070(36#)
_________________________________________________________________________
48  Cd  95   94.94994(54#)                    112.414(4)       g
        96   95.94034(43#)
        97   96.93510(32#)
        98   97.927389(56)
        99   98.9249258(17)
        100  99.9203488(18)
        101  100.9185862(16)
        102  101.9144820(18)
        103  102.9134165(19)
        104  103.9098564(18)
        105  104.9094639(15)
        106  105.9064599(12)    0.0125(6)
        107  106.9066121(18)
        108  107.9041834(12)    0.0089(3)
        109  108.9049867(17)
        110  109.90300661(61)   0.1249(18)
        111  110.90418287(61)   0.1280(12)
        112  111.90276287(60)   0.2413(21)
        113  112.90440813(45)   0.1222(12)
        114  113.90336509(43)   0.2873(42)
        115  114.90543751(77)
        116  115.90476315(17)   0.0749(18)
        117  116.9072260(11)
        118  117.906922(21)
        119  118.909847(40)
        120  119.9098681(40)
        121  120.9129637(21)
        122  121.9134591(25)
        123  122.9168925(29)
        124  123.9176574(32)
        125  124.9212576(31)
        126  125.9224291(27)
        127  126.926472(14)
        128  127.9278129(78)
        129  128.93182(21#)
        130  129.93394(18)
        131  130.94060(21#)
        132  131.94604(21#)
        133  132.95285(32#)
_________________________________________________________________________
49  In  97   96.94934(54#)                    114.818(1)
        98   97.94214(21#)
        99   98.93411(21#)
        100  99.93096(20)
        101  100.92634(32#)
        102  101.9241071(49)
        103  102.9198819(98)
        104  103.9182145(62)
        105  104.914502(11)
        106  105.913464(13)
        107  106.910290(12)
        108  107.9096935(93)
        109  108.9071514(43)
        110  109.907170(12)
        111  110.9051085(38)
        112  111.9055377(46)
        113  112.90406184(91)   0.0429(5)
        114  113.90491791(94)
        115  114.903878776(12)  0.9571(5)
        116  115.90525999(24)
        117  116.9045157(52)
        118  117.9063566(83)
        119  118.9058507(78)
        120  119.907967(43)
        121  120.907851(29)
        122  121.910281(54)
        123  122.910434(21)
        124  123.913182(33)
        125  124.913605(29)
        126  125.916507(29)
        127  126.917446(23)
        128  127.92040(16)
        129  128.9218053(29)
        130  129.924977(41)
        131  130.9269715(29)
        132  131.933001(64)
        133  132.93831(21#)
        134  133.94454(32#)
        135  134.95005(43#)
_________________________________________________________________________
50  Sn  99   98.94853(54#)                    118.710(7)       g
        100  99.93850(32)
        101  100.93526(32)
        102  101.93029(11)
        103  102.928105(76)
        104  103.9231052(62)
        105  104.9212684(43)
        106  105.9169574(55)
        107  106.9157137(57)
        108  107.9118943(58)
        109  108.9112921(85)
        110  109.907845(15)
        111  110.9077401(58)
        112  111.90482387(61)   0.0097(1)
        113  112.9051757(18)
        114  113.9027827(10)    0.0066(1)
        115  114.903344699(16)  0.0034(1)
        116  115.90174280(10)   0.1454(9)
        117  116.90295398(52)   0.0768(7)
        118  117.90160657(54)   0.2422(9)
        119  118.90331117(78)   0.0859(4)
        120  119.90220163(97)   0.3258(9)
        121  120.9042426(10)
        122  121.9034438(26)    0.0463(3)
        123  122.9057252(26)
        124  123.9052766(11)    0.0579(5)
        125  124.9077864(11)
        126  125.907659(11)
        127  126.910390(11)
        128  127.910507(19)
        129  128.913465(21)
        130  129.9139738(23)
        131  130.9170450(65)
        132  131.9178267(31)
        133  132.9239134(26)
        134  133.9286821(35)
        135  134.9349086(33)
        136  135.93999(43#)
        137  136.94655(54#)
        138  137.95184(64#)
_________________________________________________________________________
51  Sb  103  102.93969(32#)                   121.760(1)       g
        104  103.93648(13)
        105  104.931276(23)
        106  105.9286380(80)
        107  106.9241506(45)
        108  107.9222267(59)
        109  108.9181411(57)
        110  109.9168543(64)
        111  110.9132182(95)
        112  111.912400(19)
        113  112.909375(18)
        114  113.909290(23)
        115  114.906598(17)
        116  115.9067931(55)
        117  116.9048415(91)
        118  117.9055321(32)
        119  118.9039455(83)
        120  119.9050794(77)
        121  120.9038120(30)    0.5721(5)
        122  121.9051699(30)
        123  122.9042132(23)    0.4279(5)
        124  123.9059350(23)
        125  124.9052530(28)
        126  125.907253(34)
        127  126.9069243(55)
        128  127.909146(21)
        129  128.909147(23)
        130  129.911662(15)
        131  130.9119888(23)
        132  131.9145077(29)
        133  132.9152732(34)
        134  133.9205357(18)
        135  134.9251851(31)
        136  135.9307459(68)
        137  136.93555(32)
        138  137.94145(32#)
        139  138.94655(43#)
        140  139.95283(64#)
_________________________________________________________________________
52  Te  105  104.94330(32)                    127.60(3)        g
        106  105.93750(11)
        107  106.935012(76)
        108  107.9293805(58)
        109  108.9273045(47)
        110  109.9224581(71)
        111  110.9210006(69)
        112  111.9167279(90)
        113  112.915891(30)
        114  113.912089(30)
        115  114.911902(30)
        116  115.908460(30)
        117  116.908646(14)
        118  117.905854(20)
        119  118.9064071(85)
        120  119.9040593(33)    0.0009(1)
        121  120.904944(28)
        122  121.9030435(16)    0.0255(12)
        123  122.9042698(16)    0.0089(3)
        124  123.9028171(16)    0.0474(14)
        125  124.9044299(16)    0.0707(15)
        126  125.9033109(16)    0.1884(25)
        127  126.9052257(16)
        128  127.90446128(93)   0.3174(8)
        129  128.90659646(93)
        130  129.906222748(12)  0.3408(62)
        131  130.908522213(65)
        132  131.9085467(37)
        133  132.9109688(39)
        134  133.9113940(30)
        135  134.9165557(29)
        136  135.9201006(26)
        137  136.9255989(27)
        138  137.9294722(47)
        139  138.9353672(38)
        140  139.939499(30)
        141  140.94580(43#)
        142  141.95022(54#)
        143  142.95676(54#)
_________________________________________________________________________
53  I   107  106.94678(32#)                   126.90447(3)
        108  107.94348(14)
        109  108.9380853(61)
        110  109.935089(54)
        111  110.9302692(51)
        112  111.928005(11)
        113  112.9236501(86)
        114  113.92185(32#)
        115  114.918048(31)
        116  115.91681(10)
        117  116.913648(28)
        118  117.913074(21)
        119  118.910074(30)
        120  119.910087(16)
        121  120.9074051(58)
        122  121.9075888(56)
        123  122.9055885(40)
        124  123.9062090(26)
        125  124.9046294(16)
        126  125.9056233(41)
        127  126.9044719(39)    1
        128  127.9058086(39)
        129  128.9049837(34)
        130  129.9066702(34)
        131  130.90612630(69)
        132  131.9079935(44)
        133  132.9077970(50)
        134  133.9097588(59)
        135  134.9100488(58)
        136  135.914604(15)
        137  136.9180282(90)
        138  137.9227264(64)
        139  138.926506(31)
        140  139.93173(20)
        141  140.93569(21#)
        142  141.94120(40)
        143  142.94565(32#)
        144  143.95139(43#)
        145  144.95605(54#)
_________________________________________________________________________
54  Xe  109  108.95043(32)                    131.293(6)       g,m
        110  109.94426(11)
        111  110.941607(93)
        112  111.9355590(89)
        113  112.9332217(73)
        114  113.927980(12)
        115  114.926294(13)
        116  115.921581(14)
        117  116.920359(11)
        118  117.916179(11)
        119  118.915411(11)
        120  119.911784(13)
        121  120.911453(11)
        122  121.908368(12)
        123  122.908482(10)
        124  123.9058920(19)    0.000952(3)
        125  124.9063944(20)
        126  125.9042983(38)    0.000890(2)
        127  126.9051829(44)
        128  127.9035310(11)    0.019102(8)
        129  128.9047808611(60)  0.264006(82)
        130  129.903509349(10)  0.040710(13)
        131  130.90508406(24)   0.212324(30)
        132  131.9041550856(56)  0.269086(33)
        133  132.9059108(26)
        134  133.90539466(90)   0.104357(21)
        135  134.9072278(45)
        136  135.907214484(11)  0.088573(44)
        137  136.91155778(11)
        138  137.9141463(30)
        139  138.9187922(23)
        140  139.9216458(25)
        141  140.9267872(31)
        142  141.9299731(29)
        143  142.9353696(50)
        144  143.9389451(57)
        145  144.944720(12)
        146  145.948518(26)
        147  146.95426(21#)
        148  147.95813(21#)
_________________________________________________________________________
55  Cs  112  111.950309(93)                   132.90545196(6)
        113  112.9444291(93)
        114  113.941296(76)
        115  114.93591(32#)
        116  115.93337(11#)
        117  116.928617(67)
        118  117.926560(14)
        119  118.922377(15)
        120  119.920677(11)
        121  120.917227(15)
        122  121.916108(36)
        123  122.912996(13)
        124  123.9122578(89)
        125  124.9097280(83)
        126  125.909446(11)
        127  126.9074174(60)
        128  127.9077487(58)
        129  128.9060657(49)
        130  129.9067093(90)
        131  130.9054649(53)
        132  131.9064339(21)
        133  132.9054519610(80)  1
        134  133.906718503(17)
        135  134.9059770(11)
        136  135.9073114(20)
        137  136.90708923(36)
        138  137.9110171(98)
        139  138.9133638(34)
        140  139.9172831(88)
        141  140.9200455(98)
        142  141.9242960(79)
        143  142.927349(24)
        144  143.932076(27)
        145  144.935527(12)
        146  145.940344(42)
        147  146.944156(57)
        148  147.94923(62)
        149  148.95302(21#)
        150  149.95833(32#)
        151  150.96258(43#)
_________________________________________________________________________
56  Ba  114  113.95066(12)                    137.327(7)
        115  114.94737(54#)
        116  115.94128(32#)
        117  116.93814(21)
        118  117.93306(21#)
        119  118.93066(21)
        120  119.92605(32)
        121  120.92405(15)
        122  121.919904(30)
        123  122.918781(13)
        124  123.915094(13)
        125  124.914472(12)
        126  125.911250(13)
        127  126.911091(12)
        128  127.9083420(56)
        129  128.908681(11)
        130  129.9063207(28)    0.00106(1)
        131  130.9069410(28)
        132  131.9050611(11)    0.00101(1)
        133  132.9060074(11)
        134  133.90450818(30)   0.02417(18)
        135  134.90568838(29)   0.06592(12)
        136  135.90457573(29)   0.07854(24)
        137  136.90582714(30)   0.11232(24)
        138  137.90524700(31)   0.71698(42)
        139  138.90884110(31)
        140  139.9106057(85)
        141  140.9144033(57)
        142  141.9164324(64)
        143  142.9206253(74)
        144  143.9229549(77)
        145  144.9275184(91)
        146  145.930284(22)
        147  146.935304(21)
        148  147.938171(68)
        149  148.94308(21#)
        150  149.94605(32#)
        151  150.95127(32#)
        152  151.95481(43#)
        153  152.96036(43#)
_________________________________________________________________________
57  La  116  115.95630(23#)                   138.90547(7)     g
        117  116.94999(32#)
        118  117.94673(32#)
        119  118.94099(32#)
        120  119.93807(32#)
        121  120.93315(32#)
        122  121.93071(32#)
        123  122.92630(21#)
        124  123.924574(61)
        125  124.920816(28)
        126  125.919513(97)
        127  126.916375(28)
        128  127.915592(58)
        129  128.912694(23)
        130  129.912369(28)
        131  130.910070(30)
        132  131.910119(39)
        133  132.908218(30)
        134  133.908514(21)
        135  134.906984(10)
        136  135.907635(57)
        137  136.9064504(18)
        138  137.9071149(37)    0.0008881(71)
        139  138.9063563(24)    0.9991119(71)
        140  139.9094806(24)
        141  140.9109660(48)
        142  141.9140909(69)
        143  142.9160795(79)
        144  143.919646(14)
        145  144.921808(13)
        146  145.925875(36)
        147  146.928418(12)
        148  147.932679(21)
        149  148.93535(21)
        150  149.93947(21#)
        151  150.94232(21#)
        152  151.94682(32#)
        153  152.95036(32#)
        154  153.95517(43#)
        155  154.95901(43#)
_________________________________________________________________________
58  Ce  119  118.95271(54#)                   140.116(1)       g
        120  119.94654(54#)
        121  120.94335(43#)
        122  121.93787(43#)
        123  122.93528(32#)
        124  123.93031(32#)
        125  124.92844(21#)
        126  125.923971(30)
        127  126.922727(31)
        128  127.918911(30)
        129  128.918102(30)
        130  129.914736(30)
        131  130.914429(35)
        132  131.911464(22)
        133  132.911520(18)
        134  133.908928(22)
        135  134.909161(11)
        136  135.90712921(41)   0.00185(2)
        137  136.90776236(45)
        138  137.905991(11)     0.00251(2)
        139  138.9066551(78)
        140  139.9054431(23)    0.88450(51)
        141  140.9082807(23)
        142  141.9092504(29)    0.11114(51)
        143  142.9123921(29)
        144  143.9136529(34)
        145  144.917265(36)
        146  145.918802(18)
        147  146.9226899(92)
        148  147.924424(12)
        149  148.928427(11)
        150  149.930384(13)
        151  150.934272(19)
        152  151.93660(21#)
        153  152.94093(21#)
        154  153.94380(32#)
        155  154.94855(43#)
        156  155.95183(43#)
        157  156.95705(54#)
_________________________________________________________________________
59  Pr  121  120.95532(54#)                   140.90766(2)
        122  121.95175(54#)
        123  122.94596(43#)
        124  123.94294(43#)
        125  124.93770(32#)
        126  125.93524(21#)
        127  126.93071(21#)
        128  127.928791(32)
        129  128.925095(32)
        130  129.923590(69)
        131  130.920235(50)
        132  131.919255(61)
        133  132.916331(13)
        134  133.915697(22)
        135  134.913112(13)
        136  135.912677(12)
        137  136.9106792(87)
        138  137.910754(15)
        139  138.9089408(85)
        140  139.9090803(69)
        141  140.9076576(23)    1
        142  141.9100496(23)
        143  142.9108228(24)
        144  143.9133109(32)
        145  144.9145182(78)
        146  145.917680(37)
        147  146.919008(17)
        148  147.922130(16)
        149  148.923736(11)
        150  149.9266765(97)
        151  150.928309(13)
        152  151.931553(20)
        153  152.933904(13)
        154  153.93753(16)
        155  154.940509(18)
        156  155.94464(32#)
        157  156.94789(43#)
        158  157.95241(43#)
        159  158.95589(54#)
_________________________________________________________________________
60  Nd  124  123.95220(54#)                   144.242(3)       g
        125  124.94890(43#)
        126  125.94311(32#)
        127  126.94038(32#)
        128  127.93525(21#)
        129  128.93310(22#)
        130  129.928506(30)
        131  130.927248(30)
        132  131.923321(26)
        133  132.922348(50)
        134  133.918790(13)
        135  134.918181(21)
        136  135.914976(13)
        137  136.914562(13)
        138  137.911950(12)
        139  138.911954(30)
        140  139.909550(28)
        141  140.9096147(38)
        142  141.9077290(20)    0.27152(40)
        143  142.9098200(20)    0.12174(26)
        144  143.9100930(20)    0.23798(19)
        145  144.9125793(20)    0.08293(12)
        146  145.9131226(20)    0.17189(32)
        147  146.9161061(20)
        148  147.9168993(26)    0.05756(21)
        149  148.9201548(26)
        150  149.9209022(18)    0.05638(28)
        151  150.9238403(18)
        152  151.924692(26)
        153  152.9277180(29)
        154  153.92948(12)
        155  154.9331357(98)
        156  155.93508(21)
        157  156.939386(27)
        158  157.94197(32#)
        159  158.94653(43#)
        160  159.94940(43#)
        161  160.95428(54#)
_________________________________________________________________________
61  Pm  126  125.95792(54#)                   [145]
        127  126.95192(43#)
        128  127.94870(32#)
        129  128.94323(32#)
        130  129.94053(21#)
        131  130.93567(21#)
        132  131.93384(16#)
        133  132.929782(54)
        134  133.928353(62)
        135  134.924823(70)
        136  135.923585(77)
        137  136.920480(14)
        138  137.919548(30)
        139  138.916800(15)
        140  139.916040(38)
        141  140.913555(15)
        142  141.912890(25)
        143  142.9109383(34)
        144  143.9125964(34)
        145  144.9127559(33)
        146  145.9147024(48)
        147  146.9151450(19)
        148  147.9174819(63)
        149  148.9183423(27)
        150  149.920991(22)
        151  150.9212175(51)
        152  151.923506(28)
        153  152.9241567(97)
        154  153.926472(48)
        155  154.9281370(51)
        156  155.9311175(39)
        157  156.9331214(75)
        158  157.936565(14)
        159  158.939287(11)
        160  159.94310(32#)
        161  160.94607(32#)
        162  161.95022(43#)
        163  162.95357(54#)
_________________________________________________________________________
62  Sm  128  127.95842(54#)                   150.36(2)        g
        129  128.95476(54#)
        130  129.94900(43#)
        131  130.94618(43#)
        132  131.94087(32#)
        133  132.93856(32#)
        134  133.93411(21#)
        135  134.93252(17)
        136  135.928276(13)
        137  136.926971(46)
        138  137.923244(13)
        139  138.922297(12)
        140  139.918995(13)
        141  140.9184816(92)
        142  141.9152044(36)
        143  142.9146353(33)
        144  143.9120065(21)    0.0307(7)
        145  144.9134173(21)
        146  145.9130470(35)
        147  146.9149044(19)    0.1499(18)
        148  147.9148292(19)    0.1124(10)
        149  148.9171921(18)    0.1382(7)
        150  149.9172829(18)    0.0738(1)
        151  150.9199398(18)
        152  151.9197397(18)    0.2675(16)
        153  152.9221047(18)
        154  153.9222169(20)    0.2275(29)
        155  154.9246477(20)
        156  155.925536(10)
        157  156.9284187(48)
        158  157.9299510(53)
        159  158.9332172(64)
        160  159.9353353(64)
        161  160.9391602(73)
        162  161.94146(21#)
        163  162.94555(32#)
        164  163.94836(32#)
        165  164.95297(43#)
_________________________________________________________________________
63  Eu  130  129.96369(54#)                   151.964(1)       g
        131  130.95784(43#)
        132  131.95467(43#)
        133  132.94929(32#)
        134  133.94640(32#)
        135  134.94187(21#)
        136  135.93962(21#)
        137  136.93546(21#)
        138  137.933709(30)
        139  138.929792(14)
        140  139.928088(55)
        141  140.924932(14)
        142  141.923442(32)
        143  142.920299(12)
        144  143.918820(12)
        145  144.9162726(36)
        146  145.9172110(65)
        147  146.9167527(31)
        148  147.918089(11)
        149  148.9179378(44)
        150  149.9197077(68)
        151  150.9198578(18)    0.4781(6)
        152  151.9217522(18)
        153  152.9212380(18)    0.5219(6)
        154  153.9229870(19)
        155  154.9229011(19)
        156  155.9247605(59)
        157  156.9254334(46)
        158  157.927799(11)
        159  158.9291001(47)
        160  159.931851(10)
        161  160.933664(11)
        162  161.936989(65)
        163  162.939196(76)
        164  163.94274(22#)
        165  164.94559(35#)
        166  165.94962(32#)
        167  166.95289(43#)
_________________________________________________________________________
64  Gd  133  132.96133(54#)                   157.25(3)        g
        134  133.95566(43#)
        135  134.95245(43#)
        136  135.94730(32#)
        137  136.94502(32#)
        138  137.94025(21#)
        139  138.93813(21#)
        140  139.933674(30)
        141  140.932126(21)
        142  141.928116(30)
        143  142.92675(22)
        144  143.922963(30)
        145  144.921713(21)
        146  145.9183188(46)
        147  146.9191014(25)
        148  147.9181215(21)
        149  148.9193481(38)
        150  149.9186644(66)
        151  150.9203560(35)
        152  151.9197995(18)    0.0020(1)
        153  152.9217580(18)
        154  153.9208741(17)    0.0218(3)
        155  154.9226305(17)    0.1480(12)
        156  155.9221312(17)    0.2047(9)
        157  156.9239686(17)    0.1565(2)
        158  157.9241123(17)    0.2484(7)
        159  158.9263970(17)
        160  159.9270624(18)    0.2186(19)
        161  160.9296775(21)
        162  161.9309930(45)
        163  162.9341769(90)
        164  163.93583(21#)
        165  164.93936(32#)
        166  165.94146(64#)
        167  166.94545(43#)
        168  167.94808(43#)
        169  168.95260(54#)
_________________________________________________________________________
65  Tb  135  134.96476(43#)                   158.92535(2)
        136  135.96129(54#)
        137  136.95602(54#)
        138  137.95312(32#)
        139  138.94833(32#)
        140  139.94581(86)
        141  140.94145(11)
        142  141.93928(75)
        143  142.935137(55)
        144  143.933045(30)
        145  144.92882(10)
        146  145.927253(48)
        147  146.9240548(87)
        148  147.924282(14)
        149  148.9232535(41)
        150  149.9236649(80)
        151  150.9231096(46)
        152  151.924083(43)
        153  152.9234424(44)
        154  153.924685(49)
        155  154.923511(11)
        156  155.9247552(43)
        157  156.9240330(18)
        158  157.9254209(20)
        159  158.9253547(19)    1
        160  159.9271756(19)
        161  160.9275778(20)
        162  161.929495(39)
        163  162.9306547(47)
        164  163.93336(11)
        165  164.93498(21#)
        166  165.937860(75)
        167  166.93996(21#)
        168  167.94340(32#)
        169  168.94597(32#)
        170  169.94984(43#)
        171  170.95273(54#)
_________________________________________________________________________
66  Dy  138  137.96250(43#)                   162.500(1)       g
        139  138.95959(54#)
        140  139.95402(54#)
        141  140.95128(32#)
        142  141.94619(78#)
        143  142.943994(14)
        144  143.9392695(77)
        145  144.9374740(70)
        146  145.9328445(72)
        147  146.9310827(95)
        148  147.927157(10)
        149  148.927322(10)
        150  149.9255933(48)
        151  150.9261916(38)
        152  151.9247253(51)
        153  152.9257724(45)
        154  153.9244293(80)
        155  154.925759(10)
        156  155.9242847(17)    0.00056(3)
        157  156.9254707(57)
        158  157.9244159(31)    0.00095(3)
        159  158.9257470(22)
        160  159.9252046(20)    0.02329(18)
        161  160.9269405(20)    0.18889(42)
        162  161.9268056(20)    0.25475(36)
        163  162.9287383(20)    0.24896(42)
        164  163.9291819(20)    0.28260(54)
        165  164.9317105(20)
        166  165.9328139(21)
        167  166.935661(65)
        168  167.93713(15)
        169  168.94031(32)
        170  169.94239(21#)
        171  170.94612(32#)
        172  171.94846(32#)
        173  172.95283(43#)
_________________________________________________________________________
67  Ho  140  139.96859(54#)                   164.93033(2)
        141  140.96311(54#)
        142  141.96001(54#)
        143  142.95486(43#)
        144  143.9521097(91)
        145  144.9472674(80)
        146  145.9449935(71)
        147  146.9401423(54)
        148  147.937744(90)
        149  148.933803(16)
        150  149.933498(15)
        151  150.9316983(89)
        152  151.931724(14)
        153  152.9302064(56)
        154  153.9306068(89)
        155  154.929104(19)
        156  155.929706(64)
        157  156.928254(25)
        158  157.928946(29)
        159  158.9277197(36)
        160  159.928737(16)
        161  160.9278615(30)
        162  161.9291023(39)
        163  162.9287410(20)
        164  163.9302403(25)
        165  164.9303288(21)    1
        166  165.9322909(21)
        167  166.9331385(59)
        168  167.935522(32)
        169  168.936878(22)
        170  169.939625(54)
        171  170.94147(64)
        172  171.94473(21#)
        173  172.94702(32#)
        174  173.95095(32#)
        175  174.95362(43#)
_________________________________________________________________________
68  Er  142  141.97010(54#)                   167.259(3)       g
        143  142.96662(43#)
        144  143.96070(21#)
        145  144.95805(21#)
        146  145.9524184(72)
        147  146.949964(41)
        148  147.944735(11)
        149  148.942306(30)
        150  149.937916(18)
        151  150.937449(18)
        152  151.935057(10)
        153  152.935080(10)
        154  153.9327908(55)
        155  154.9332159(67)
        156  155.931067(26)
        157  156.931949(27)
        158  157.929893(27)
        159  158.9306918(42)
        160  159.929077(26)
        161  160.9300046(96)
        162  161.9287884(20)    0.00139(5)
        163  162.9300408(53)
        164  163.9292088(20)    0.01601(3)
        165  164.9307345(21)
        166  165.9302995(22)    0.33503(36)
        167  166.9320546(22)    0.22869(9)
        168  167.9323767(22)    0.26978(18)
        169  168.9345968(22)
        170  169.9354702(26)    0.14910(36)
        171  170.9380357(26)
        172  171.9393619(47)
        173  172.94240(21#)
        174  173.94423(32#)
        175  174.94777(43#)
        176  175.94994(43#)
        177  176.95399(54#)
_________________________________________________________________________
69  Tm  144  143.97628(43#)                   168.93422(2)
        145  144.97039(21#)
        146  145.96684(21#)
        147  146.9613799(73)
        148  147.958384(11)
        149  148.95289(32#)
        150  149.95009(21#)
        151  150.945488(21)
        152  151.944422(79)
        153  152.942040(16)
        154  153.941570(15)
        155  154.939210(11)
        156  155.938992(16)
        157  156.936944(28)
        158  157.936980(27)
        159  158.934975(30)
        160  159.935263(37)
        161  160.933549(30)
        162  161.934002(28)
        163  162.9326592(62)
        164  163.933544(26)
        165  164.9324431(26)
        166  165.933561(13)
        167  166.9328562(25)
        168  167.9341774(27)
        169  168.9342179(22)    1
        170  169.9358060(22)
        171  170.9364339(24)
        172  171.9384055(62)
        173  172.9396084(53)
        174  173.942173(48)
        175  174.943841(54)
        176  175.94700(11)
        177  176.94904(32#)
        178  177.95264(43#)
        179  178.95534(54#)
_________________________________________________________________________
70  Yb  148  147.96758(64#)                   173.054(5)       g
        149  148.96436(54#)
        150  149.95852(43#)
        151  150.95540(32)
        152  151.95027(17)
        153  152.94932(21#)
        154  153.946396(19)
        155  154.945783(18)
        156  155.942825(11)
        157  156.942645(12)
        158  157.9398705(86)
        159  158.940055(19)
        160  159.937557(17)
        161  160.937907(17)
        162  161.935774(17)
        163  162.936340(17)
        164  163.934495(17)
        165  164.935270(28)
        166  165.9338747(78)
        167  166.9349530(47)
        168  167.9338896(22)    0.00123(3)
        169  168.9351825(22)
        170  169.9347664(22)    0.02982(39)
        171  170.9363302(22)    0.1409(14)
        172  171.9363859(22)    0.2168(13)
        173  172.9382151(22)    0.16103(63)
        174  173.9388664(22)    0.32026(80)
        175  174.9412808(22)
        176  175.9425764(24)    0.12996(83)
        177  176.9452656(24)
        178  177.946651(11)
        179  178.95004(21#)
        180  179.95212(32#)
        181  180.95589(32#)
_________________________________________________________________________
71  Lu  150  149.97355(54#)                   174.9668(1)      g
        151  150.96768(43#)
        152  151.96412(21#)
        153  152.95875(17)
        154  153.95736(22#)
        155  154.954321(21)
        156  155.953033(79)
        157  156.950127(16)
        158  157.949316(16)
        159  158.946636(40)
        160  159.946033(61)
        161  160.943572(30)
        162  161.943283(81)
        163  162.941179(30)
        164  163.941339(30)
        165  164.939407(28)
        166  165.939859(32)
        167  166.938270(34)
        168  167.938736(42)
        169  168.9376441(39)
        170  169.938478(18)
        171  170.9379170(27)
        172  171.9390891(30)
        173  172.9389340(23)
        174  173.9403409(23)
        175  174.9407752(20)    0.97401(13)
        176  175.9426897(20)    0.02599(13)
        177  176.9437615(20)
        178  177.9459580(29)
        179  178.9473309(57)
        180  179.949888(76)
        181  180.95191(17)
        182  181.95504(21#)
        183  182.957363(98)
        184  183.96091(32#)
        185  184.96362(32#)
_________________________________________________________________________
72  Hf  153  152.97069(54#)                   178.49(2)
        154  153.96486(54#)
        155  154.96311(32#)
        156  155.95935(17)
        157  156.95824(21#)
        158  157.954801(19)
        159  158.953996(18)
        160  159.950691(11)
        161  160.950278(24)
        162  161.9472148(97)
        163  162.947113(27)
        164  163.944371(17)
        165  164.944567(30)
        166  165.942180(30)
        167  166.942600(30)
        168  167.940568(30)
        169  168.941259(30)
        170  169.939609(30)
        171  170.940492(31)
        172  171.939450(26)
        173  172.940513(30)
        174  173.9400461(28)    0.0016(1)
        175  174.9415092(29)
        176  175.9414076(22)    0.0526(7)
        177  176.9432277(20)    0.1860(9)
        178  177.9437058(20)    0.2728(7)
        179  178.9458232(20)    0.1362(2)
        180  179.9465570(20)    0.3508(16)
        181  180.9491083(20)
        182  181.9505612(68)
        183  182.953530(32)
        184  183.955446(43)
        185  184.958862(98)
        186  185.960897(59)
        187  186.96477(32#)
        188  187.96685(32#)
        189  188.97084(32#)
_________________________________________________________________________
73  Ta  155  154.97424(54#)                   180.94788(2)
        156  155.97203(32#)
        157  156.96818(17)
        158  157.96654(22#)
        159  158.963023(21)
        160  159.961488(79)
        161  160.958452(27)
        162  161.957294(56)
        163  162.954337(41)
        164  163.953534(30)
        165  164.950781(15)
        166  165.950512(30)
        167  166.948093(30)
        168  167.948047(30)
        169  168.946011(30)
        170  169.946175(30)
        171  170.944476(30)
        172  171.944895(30)
        173  172.943750(30)
        174  173.944454(30)
        175  174.943737(30)
        176  175.944857(33)
        177  176.9444795(38)
        178  177.945678(56#)
        179  178.9459366(21)
        180  179.9474648(24)    0.0001201(32)
        181  180.9479958(20)    0.9998799(32)
        182  181.9501519(20)
        183  182.9513726(20)
        184  183.954008(28)
        185  184.955559(15)
        186  185.958551(64)
        187  186.960386(71)
        188  187.963916(71)
        189  188.96583(32#)
        190  189.96939(21#)
        191  190.97156(32#)
        192  191.97514(43#)
_________________________________________________________________________
74  W   157  156.97884(43#)                   183.84(1)
        158  157.97456(54#)
        159  158.97264(32#)
        160  159.96846(17)
        161  160.96720(21#)
        162  161.963499(19)
        163  162.962524(57)
        164  163.958961(11)
        165  164.958281(27)
        166  165.955031(10)
        167  166.954805(20)
        168  167.951806(14)
        169  168.951779(17)
        170  169.949232(14)
        171  170.949451(30)
        172  171.947292(30)
        173  172.947689(30)
        174  173.946079(30)
        175  174.946717(30)
        176  175.945634(30)
        177  176.946643(30)
        178  177.945883(16)
        179  178.947077(16)
        180  179.9467108(20)    0.0012(1)
        181  180.9481978(51)
        182  181.94820394(91)   0.2650(16)
        183  182.95022275(90)   0.1431(4)
        184  183.95093092(94)   0.3064(2)
        185  184.95341897(99)
        186  185.9543628(17)    0.2843(19)
        187  186.9571588(17)
        188  187.9584862(36)
        189  188.961763(44)
        190  189.963091(42)
        191  190.966531(48)
        192  191.96817(21#)
        193  192.97178(21#)
        194  193.97367(32#)
_________________________________________________________________________
75  Re  159  158.98418(54#)                   186.207(1)
        160  159.98182(32#)
        161  160.97757(17)
        162  161.97584(22#)
        163  162.972080(20)
        164  163.970453(79)
        165  164.967103(27)
        166  165.965761(78)
        167  166.962595(44#)
        168  167.961573(33)
        169  168.958766(12)
        170  169.958220(28)
        171  170.955716(30)
        172  171.955420(42)
        173  172.953243(30)
        174  173.953115(30)
        175  174.951381(30)
        176  175.951623(30)
        177  176.950328(30)
        178  177.950989(30)
        179  178.949989(26)
        180  179.950792(23)
        181  180.950058(14)
        182  181.95121(11)
        183  182.9508196(86)
        184  183.9525228(47)
        185  184.9529545(13)    0.3740(2)
        186  185.9549856(13)
        187  186.9557501(16)    0.6260(2)
        188  187.9581115(16)
        189  188.9592260(89)
        190  189.961744(76)
        191  190.963122(11)
        192  191.966088(82)
        193  192.967541(41)
        194  193.97076(21#)
        195  194.97254(32#)
        196  195.97580(32#)
        197  196.97799(32#)
        198  197.98160(43#)
_________________________________________________________________________
76  Os  161  160.98903(43#)                   190.23(3)        g
        162  161.98443(54#)
        163  162.98241(32#)
        164  163.97802(17)
        165  164.97660(22#)
        166  165.972692(20)
        167  166.971549(78)
        168  167.967808(12)
        169  168.967018(27)
        170  169.963578(11)
        171  170.963174(19)
        172  171.960017(14)
        173  172.959808(16)
        174  173.957064(11)
        175  174.956945(13)
        176  175.954806(30)
        177  176.954966(17)
        178  177.953254(15)
        179  178.953817(18)
        180  179.952375(17)
        181  180.953247(27)
        182  181.952110(23)
        183  182.953125(53)
        184  183.9524885(14)    0.0002(1)
        185  184.9540417(14)
        186  185.9538350(16)    0.0159(3)
        187  186.9557474(16)    0.0196(2)
        188  187.9558352(16)    0.1324(8)
        189  188.9581442(17)    0.1615(5)
        190  189.9584437(17)    0.2626(2)
        191  190.9609264(17)
        192  191.9614770(29)    0.4078(19)
        193  192.9641479(29)
        194  193.9651772(30)
        195  194.968318(65)
        196  195.969641(43)
        197  196.97283(21#)
        198  197.97441(21#)
        199  198.97801(21#)
        200  199.97984(32#)
        201  200.98364(32#)
        202  201.98595(43#)
_________________________________________________________________________
77  Ir  164  163.99191(34#)                   192.217(3)
        165  164.98750(18#)
        166  165.98566(22#)
        167  166.981666(20)
        168  167.979907(80)
        169  168.976298(27)
        170  169.974922(95#)
        171  170.971640(42)
        172  171.970607(35)
        173  172.967506(12)
        174  173.966861(30)
        175  174.964150(13)
        176  175.963650(22)
        177  176.961301(21)
        178  177.961082(21)
        179  178.959120(10)
[...]
        228  228.037835(19)
        229  229.042257(14)
        230  230.04514(21#)
        231  231.04987(32#)
_________________________________________________________________________
87  Fr  199  199.007259(45)                   [223]
        200  200.006586(63)
        201  201.003867(77)
        202  202.003320(55#)
        203  203.0009407(67)
        204  204.000652(26)
        205  204.9985939(84)
        206  205.998666(30)
        207  206.996946(19)
        208  207.997138(12)
        209  208.995955(16)
        210  209.996422(16)
        211  210.995556(13)
        212  211.9962257(94)
        213  212.9961860(55)
        214  213.9989713(93)
        215  215.0003418(76)
        216  216.0031899(45)
        217  217.0046323(70)
        218  218.0075787(51)
        219  219.0092524(76)
        220  220.0123277(44)
        221  221.0142552(54)
        222  222.017552(23)
        223  223.0197360(25)
        224  224.023398(14)
        225  225.025573(13)
        226  226.029566(13)
        227  227.031869(14)
        228  228.035823(14)
        229  229.038298(15)
        230  230.042416(17)
        231  231.045158(27)
        232  232.04937(17#)
        233  233.05264(32#)
_________________________________________________________________________
88  Ra  201  201.01271(11#)                   [226]
        202  202.009760(26)
        203  203.009304(86)
        204  204.006492(16)
        205  205.006268(76)
        206  206.003828(19)
        207  207.003799(59)
        208  208.001841(17)
        209  209.001990(54)
        210  210.000494(16)
        211  211.0008932(85)
        212  211.999787(12)
        213  213.000384(22)
        214  214.0000997(56)
        215  215.0027204(82)
        216  216.0035334(94)
        217  217.0063207(92)
        218  218.007141(12)
        219  219.0100855(89)
        220  220.0110259(89)
        221  221.0139177(50)
        222  222.0153748(49)
        223  223.0185023(27)
        224  224.0202120(23)
        225  225.0236119(32)
        226  226.0254103(25)
        227  227.0291783(25)
        228  228.0310707(26)
        229  229.034942(16)
        230  230.037055(11)
        231  231.041027(12)
        232  232.0434753(98)
        233  233.047582(17)
        234  234.050342(33)
        235  235.05497(32#)
_________________________________________________________________________
89  Ac  206  206.014452(77#)                  [227]
        207  207.011966(54)
        208  208.011550(60)
        209  209.009495(54)
        210  210.009436(62)
        211  211.007732(57)
        212  212.007813(55)
        213  213.006609(56)
        214  214.006918(16)
        215  215.006475(13)
        216  216.008743(12)
        217  217.009344(12)
        218  218.011642(54)
        219  219.012421(54)
        220  220.0147549(66)
        221  221.015592(54)
        222  222.0178442(56)
        223  223.0191377(77)
        224  224.0217232(45)
        225  225.0232300(53)
        226  226.0260984(36)
        227  227.0277523(25)
        228  228.0310215(27)
        229  229.032956(13)
        230  230.036327(17)
        231  231.038393(14)
        232  232.042034(14)
        233  233.044346(14)
        234  234.048139(15)
        235  235.050840(15)
        236  236.054988(41)
        237  237.05827(43#)
_________________________________________________________________________
90  Th  208  208.017900(36)                   232.0377(4)      g
        209  209.017753(93)
        210  210.015094(20)
        211  211.014929(80)
        212  212.012988(17)
        213  213.013009(76)
        214  214.011500(17)
        215  215.0117248(95)
        216  216.011056(13)
        217  217.013117(22)
        218  218.013276(11)
        219  219.015537(54)
        220  220.015748(24)
        221  221.018184(10)
        222  222.018469(13)
        223  223.0208119(99)
        224  224.021464(11)
        225  225.0239514(55)
        226  226.0249034(50)
        227  227.0277042(27)
        228  228.0287413(23)
        229  229.0317627(30)
        230  230.0331341(19)
        231  231.0363046(19)
        232  232.0380558(21)    1
        233  233.0415823(21)
        234  234.0436014(37)
        235  235.047255(14)
        236  236.049657(15)
        237  237.053629(17)
        238  238.05650(30#)
        239  239.06077(43#)
_________________________________________________________________________
91  Pa  212  212.023203(80)                   231.03588(2)
        213  213.021109(76)
        214  214.020918(82)
        215  215.019183(78)
        216  216.019109(57)
        217  217.018325(56)
        218  218.020059(20)
        219  219.019904(55)
        220  220.021705(55#)
        221  221.021875(55)
        222  222.023784(78#)
        223  223.023963(76)
        224  224.0256176(82)
        225  225.026131(76)
        226  226.027948(12)
        227  227.0288054(80)
        228  228.0310517(47)
        229  229.0320972(38)
        230  230.0345410(35)
        231  231.0358842(24)    1
        232  232.0385917(83)
        233  233.0402472(22)
        234  234.0433072(51)
        235  235.045399(15)
        236  236.048668(15)
        237  237.051023(14)
        238  238.054637(17)
        239  239.05726(21#)
        240  240.06098(32#)
        241  241.06408(43#)
_________________________________________________________________________
92  U   217  217.02466(11#)                   238.02891(3)     g,m
        218  218.023523(20)
        219  219.024999(55)
        220  220.02462(11#)
        221  221.02628(11#)
        222  222.02600(11#)
        223  223.027739(76)
        224  224.027605(27)
        225  225.029391(13)
        226  226.029339(14)
        227  227.031157(18)
        228  228.031371(15)
        229  229.0335063(64)
        230  230.0339401(51)
        231  231.0362939(32)
        232  232.0371563(23)
        233  233.0396355(29)
        234  234.0409523(19)    0.000054(5)
        235  235.0439301(19)    0.007204(6)
        236  236.0455682(19)
        237  237.0487304(20)
        238  238.0507884(20)    0.992742(10)
        239  239.0542935(20)
        240  240.0565934(57)
        241  241.06033(32#)
        242  242.06293(22#)
        243  243.06699(43#)
_________________________________________________________________________
93  Np  219  219.03143(21#)                   [237]
        220  220.03254(21#)
        221  221.03204(21#)
        222  222.03330(21#)
        223  223.03285(21#)
        224  224.03422(21#)
        225  225.033911(77)
        226  226.035188(95#)
        227  227.034957(78)
        228  228.036067(54)
        229  229.036264(93)
        230  230.037828(55)
        231  231.038245(54)
        232  232.04011(11#)
        233  233.040741(55)
        234  234.0428953(91)
        235  235.0440635(21)
        236  236.046570(54)
        237  237.0481736(19)
        238  238.0509466(19)
        239  239.0529392(22)
        240  240.056165(18)
        241  241.058253(76)
        242  242.06164(21)
        243  243.064280(34#)
        244  244.06785(32#)
        245  245.07080(43#)
_________________________________________________________________________
94  Pu  228  228.038732(33)                   [244]
        229  229.040144(55)
        230  230.039650(16)
        231  231.041102(28)
        232  232.041185(19)
        233  233.042998(54)
        234  234.0433174(75)
        235  235.045286(22)
        236  236.0460581(23)
        237  237.0484098(24)
        238  238.0495601(19)
        239  239.0521636(19)
        240  240.0538138(19)
        241  241.0568517(19)
        242  242.0587428(20)
        243  243.0620036(34)
        244  244.0642053(56)
        245  245.067826(15)
        246  246.070205(16)
        247  247.07419(21#)
_________________________________________________________________________
95  Am  230  230.04609(14#)                   [243]              *
        231  231.04556(32#)
        232  232.04645(32#)
        233  233.04644(11#)
        234  234.04773(17#)
        235  235.047908(56)
        236  236.04943(12#)
        237  237.049996(64#)
        238  238.051985(54)
        239  239.0530247(26)
        240  240.055300(15)
        241  241.0568293(19)
        242  242.0595494(19)
        243  243.0613813(24)
        244  244.0642851(22)
        245  245.0664548(34)
        246  246.069775(20#)
        247  247.07209(11#)
        248  248.07575(22#)
        249  249.07848(32#)
_________________________________________________________________________
96  Cm  232  232.04982(22#)                   [247]              *
        233  233.050770(77)
        234  234.050160(20)
        235  235.05154(22#)
        236  236.051374(20)
        237  237.052869(76)
        238  238.053081(13)
        239  239.054910(58)
        240  240.0555297(24)
        241  241.0576532(23)
        242  242.0588360(19)
        243  243.0613893(22)
        244  244.0627528(19)
        245  245.0654915(22)
        246  246.0672238(22)
        247  247.0703541(47)
        248  248.0723499(56)
        249  249.0759548(56)
        250  250.078358(12)
        251  251.082286(24)
        252  252.08487(32#)
_________________________________________________________________________
97  Bk  234  234.05727(15#)                   [247]              *
        235  235.05658(43#)
        236  236.05748(43#)
        237  237.05710(24#)
        238  238.05820(27#)
        239  239.05824(22#)
        240  240.05976(16#)
        241  241.06016(22#)
        242  242.06198(22#)
        243  243.0630078(51)
        244  244.065181(16)
        245  245.0663618(24)
        246  246.068673(64)
        247  247.0703073(59)
        248  248.073088(76#)
        249  249.0749877(27)
        250  250.0783167(42)
        251  251.080762(12)
        252  252.08431(22#)
        253  253.08688(39#)
        254  254.09060(32#)
_________________________________________________________________________
98  Cf  237  237.062198(94)                   [251]              *
        238  238.06149(32#)
        239  239.06253(23#)
        240  240.062256(20)
        241  241.06369(18#)
        242  242.063754(14)
        243  243.06548(12#)
        244  244.0660008(31)
        245  245.0680487(30)
        246  246.0688055(22)
        247  247.070965(16)
        248  248.0721851(57)
        249  249.0748539(23)
        250  250.0764062(22)
        251  251.0795886(48)
        252  252.0816272(56)
        253  253.0851345(67)
        254  254.087324(13)
        255  255.09105(22#)
        256  256.09344(34#)
_________________________________________________________________________
99  Es  239  239.06823(32#)                   [252]              *
        240  240.06892(43#)
        241  241.06856(24#)
        242  242.06957(28#)
        243  243.06951(22#)
        244  244.07088(20#)
        245  245.07125(22#)
        246  246.07290(24#)
        247  247.073622(21)
        248  248.075471(56#)
        249  249.076411(32#)
        250  250.07861(11#)
        251  251.0799936(67)
        252  252.082980(54)
        253  253.0848257(27)
        254  254.0880222(45)
        255  255.090275(12)
        256  256.09360(11#)
        257  257.09598(44#)
        258  258.09952(32#)
_________________________________________________________________________
100 Fm  241  241.07421(32#)                   [257]              *
        242  242.07343(43#)
        243  243.07446(23#)
        244  244.07404(22#)
        245  245.07535(21#)
        246  246.075350(17)
        247  247.07694(12#)
        248  248.0771865(92)
        249  249.0789275(68)
        250  250.0795210(86)
        251  251.081540(16)
        252  252.0824671(61)
        253  253.0851846(37)
        254  254.0868544(30)
        255  255.0899640(52)
        256  256.0917745(78)
        257  257.0951061(69)
        258  258.09708(22#)
        259  259.10060(30#)
        260  260.10281(55#)
_________________________________________________________________________
101 Md  245  245.08081(33#)                   [258]              *
        246  246.08171(28#)
        247  247.08152(22#)
        248  248.08282(26#)
        249  249.08291(22#)
        250  250.08441(32#)
        251  251.084774(20)
        252  252.08643(14#)
        253  253.087144(34#)
        254  254.08959(11#)
        255  255.0910841(73)
        256  256.09389(13#)
        257  257.0955424(29)
        258  258.0984315(50)
        259  259.10051(22#)
        260  260.10365(34#)
        261  261.10583(62#)
        262  262.10910(45#)
_________________________________________________________________________
102 No  248  248.08655(24#)                   [259]              *
        249  249.08780(30#)
        250  250.08756(22#)
        251  251.08894(12#)
        252  252.088967(10)
        253  253.0905641(75)
        254  254.090956(11)
        255  255.093191(16)
        256  256.0942829(84)
        257  257.0968878(74)
        258  258.09821(11#)
        259  259.10103(11#)
        260  260.10264(22#)
        261  261.10570(22#)
        262  262.10746(39#)
        263  263.11071(53#)
        264  264.11273(70#)
_________________________________________________________________________
103 Lr  251  251.09418(32#)                   [266]              *
        252  252.09526(26#)
        253  253.09509(22#)
        254  254.09648(32#)
        255  255.096562(19)
        256  256.098494(89)
        257  257.099418(47#)
        258  258.10176(11#)
        259  259.102902(76#)
        260  260.10550(13#)
        261  261.10688(22#)
        262  262.10961(22#)
        263  263.11136(30#)
        264  264.11420(47#)
        265  265.11619(65#)
        266  266.11983(56#)
_________________________________________________________________________
104 Rf  253  253.10044(44#)                   [267]              *
        254  254.10005(30#)
        255  255.10127(12#)
        256  256.101152(19)
        257  257.102918(12)
        258  258.103428(34)
        259  259.105596(78#)
        260  260.10644(22#)
        261  261.108773(54)
        262  262.10992(24#)
        263  263.11249(20#)
        264  264.11388(39#)
        265  265.11668(39#)
        266  266.11817(50#)
        267  267.12179(62#)
        268  268.12397(77#)
_________________________________________________________________________
105 Db  255  255.10707(45#)                   [268]              *
        256  256.10789(26#)
        257  257.10758(22#)
        258  258.10928(33#)
        259  259.109492(57)
        260  260.11130(10#)
        261  261.11192(12#)
        262  262.11407(15#)
        263  263.11499(18#)
        264  264.11741(25#)
        265  265.11861(24#)
        266  266.12103(30#)
        267  267.12247(44#)
        268  268.12567(57#)
        269  269.12791(73#)
        270  270.13136(64#)
_________________________________________________________________________
106 Sg  258  258.11298(44#)                   [269]              *
        259  259.11440(13#)
        260  260.114384(22)
        261  261.115949(20)
        262  262.116337(38)
        263  263.11829(10#)
        264  264.11893(30#)
        265  265.12109(13#)
        266  266.12198(26#)
        267  267.12436(30#)
        268  268.12539(50#)
        269  269.12863(39#)
        270  270.13043(60#)
        271  271.13393(63#)
        272  272.13589(83#)
        273  273.13958(54#)
_________________________________________________________________________
107 Bh  260  260.12166(26#)                   [270]              *
        261  261.12145(22#)
        262  262.12297(33#)
        263  263.12292(33#)
        264  264.12459(19#)
        265  265.12491(25#)
        266  266.12679(18#)
        267  267.12750(28#)
        268  268.12969(41#)
        269  269.13042(40#)
        270  270.13336(31#)
        271  271.13526(48#)
        272  272.13826(58#)
        273  273.14024(80#)
        274  274.14355(65#)
        275  275.14567(64#)
_________________________________________________________________________
108 Hs  263  263.12852(14#)                   [269]              *
        264  264.128357(31)
        265  265.129793(26)
        266  266.130046(42)
        267  267.13167(10#)
        268  268.13186(30#)
        269  269.13375(13#)
        270  270.13429(27#)
        271  271.13717(32#)
        272  272.13850(55#)
        273  273.14168(40#)
        274  274.14330(63#)
        275  275.14667(63#)
        276  276.14846(86#)
        277  277.15190(58#)
_________________________________________________________________________
109 Mt  265  265.13600(48#)                   [278]              *
        266  266.13737(33#)
        267  267.13719(54#)
        268  268.13865(25#)
        269  269.13882(50#)
        270  270.14033(18#)
        271  271.14074(35#)
        272  272.14341(52#)
        273  273.14440(52#)
        274  274.14724(38#)
        275  275.14882(50#)
        276  276.15159(59#)
        277  277.15327(82#)
        278  278.15631(68#)
        279  279.15808(72#)
_________________________________________________________________________
110 Ds  267  267.14377(15#)                   [281]              *
        268  268.14348(32#)
        269  269.144752(34)
        270  270.144584(52)
        271  271.14595(10#)
        272  272.14602(44#)
        273  273.14856(14#)
        274  274.14941(42#)
        275  275.15203(45#)
        276  276.15303(59#)
        277  277.15591(41#)
        278  278.15704(67#)
        279  279.16010(64#)
        280  280.16131(89#)
        281  281.16451(59#)
_________________________________________________________________________
111 Rg  272  272.15327(25#)                   [283]              *
        273  273.15313(56#)
        274  274.15525(19#)
        275  275.15594(56#)
        276  276.15833(68#)
        277  277.15907(61#)
        278  278.16149(38#)
        279  279.16272(51#)
        280  280.16514(61#)
        281  281.16636(89#)
        282  282.16912(72#)
        283  283.17054(79#)
_________________________________________________________________________
112 Cn  276  276.16141(64#)                   [285]              *
        277  277.16364(15#)
        278  278.16416(47#)
        279  279.16654(50#)
        280  280.16715(63#)
        281  281.16975(42#)
        282  282.17050(70#)
        283  283.17327(65#)
        284  284.17416(91#)
        285  285.17712(60#)
_________________________________________________________________________
113 Nh  278  278.17058(20#)                   [286]              *
        279  279.17095(75#)
        280  280.17293(75#)
        281  281.17348(75#)
        282  282.17567(39#)
        283  283.17657(52#)
        284  284.17873(62#)
        285  285.17973(89#)
        286  286.18221(72#)
        287  287.18339(81#)
_________________________________________________________________________
114 Fl  285  285.18364(47#)                   [289]              *
        286  286.18423(71#)
        287  287.18678(66#)
        288  288.18757(91#)
        289  289.19042(60#)
_________________________________________________________________________
115 Mc  287  287.19070(52#)                   [290]              *
        288  288.19274(62#)
        289  289.19363(89#)
        290  290.19598(73#)
    Uup 291  291.19707(88#)
_________________________________________________________________________
116 Lv  289  289.19816(57#)                   [293]              *
        290  290.19864(71#)
        291  291.20108(66#)
        292  292.20174(91#)
        293  293.20449(60#)
_________________________________________________________________________
117 Ts  291  291.20553(68#)                   [294]              *
        292  292.20746(75#)
        293  293.20824(89#)
    Uus 294  294.21046(74#)
_________________________________________________________________________
118 Og  293  293.21356(78#)                   [294]              *
        294  294.21392(71#)
        295  295.21624(69#)
_________________________________________________________________________
