************************************************************************
* This file is part of OpenMolcas.                                     *
*                                                                      *
* OpenMolcas is free software; you can redistribute it and/or modify   *
* it under the terms of the GNU Lesser General Public License, v. 2.1. *
* OpenMolcas is distributed in the hope that it will be useful, but it *
* is provided "as is" and without any express or implied warranties.   *
* For more details see the full text of the license in the file        *
* LICENSE or in <http://www.gnu.org/licenses/>.                        *
************************************************************************

Data tables from genfit.py
==========================

Fitting polynomials for Rys roots and weights. The data is:

mRys nOrder
Acc(i=1,mRys)
TMax(i=1,mRys)
ddx(i=1,mRys)
nMap(i=1,mRys)
nx0(i=1,mRys)
j=1,mRys
  Map(i=1,nMap(j))
  x0(i=1,nx0(j))
j=1,mRys
  Cff(i=1,nx0(j)*2*j*(nOrder+1)

mRys:   maximum order of the Rys polynomials
nOrder: degree of fitting polynomials
Acc:    relative accuracy of the fitting
TMax:   maximum T value for the fittings
        (for larger values the asymptotic formula may be used)
ddx:    step size for T in the intervals
nMap:   number of intervals, i.e. ~TMax/ddx
nx0:    number of fitting polynomials
Map:    index for which fitting polynomial to use in each interval
x0:     expansion center for each fitting polynomial (T offset)
Cff:    coefficients of the fitting polynomials
        each polynomial has nOrder+1 coefficients and there are 2j
        polynomials at each interval, for roots and weights, where
        j is the Rys order
        the nesting is:
          roots, weights
            0th...nOrder-th coefficients
              root 1...j
                polynomial 1...nx0(j)

9 6
1.000000e-16 1.000000e-16 1.000000e-15
1.000000e-15 1.000000e-14 1.000000e-14
1.000000e-13 1.000000e-13 1.000000e-12
38.800000 46.210000 50.710000
57.030000 60.320000 66.010000
68.690000 74.030000 76.260000
0.008000 0.007000 0.009000
0.009000 0.012000 0.012000
0.017000 0.016000 0.023000
4851 6602 5635
6337 5027 5501
4041 4627 3316
163 196 174
212 181 211
176 198 161
1 1 1 1 1 1 1 1 1 1
2 2 2 2 2 2 2 2 2 2
3 3 3 3 3 3 3 3 3 3
4 4 4 4 4 4 4 4 4 4
5 5 5 5 5 5 5 5 5 5
6 6 6 6 6 6 6 6 6 6
6 7 7 7 7 7 7 7 7 7
7 7 8 8 8 8 8 8 8 8
8 8 8 9 9 9 9 9 9 9
9 9 9 9 10 10 10 10 10 10
10 10 10 10 10 11 11 11 11 11
11 11 11 11 11 11 12 12 12 12
12 12 12 12 12 12 12 13 13 13
13 13 13 13 13 13 13 13 14 14
14 14 14 14 14 14 14 14 14 15
15 15 15 15 15 15 15 15 15 15
16 16 16 16 16 16 16 16 16 16
16 17 17 17 17 17 17 17 17 17
17 17 18 18 18 18 18 18 18 18
18 18 18 18 19 19 19 19 19 19
19 19 19 19 19 19 20 20 20 20
20 20 20 20 20 20 20 20 21 21
21 21 21 21 21 21 21 21 21 21
22 22 22 22 22 22 22 22 22 22
22 22 23 23 23 23 23 23 23 23
23 23 23 23 24 24 24 24 24 24
24 24 24 24 24 24 25 25 25 25
25 25 25 25 25 25 25 25 26 26
26 26 26 26 26 26 26 26 26 26
27 27 27 27 27 27 27 27 27 27
27 27 27 28 28 28 28 28 28 28
28 28 28 28 28 28 29 29 29 29
29 29 29 29 29 29 29 29 29 30
30 30 30 30 30 30 30 30 30 30
30 30 31 31 31 31 31 31 31 31
31 31 31 31 31 32 32 32 32 32
32 32 32 32 32 32 32 32 33 33
33 33 33 33 33 33 33 33 33 33
33 34 34 34 34 34 34 34 34 34
34 34 34 34 34 35 35 35 35 35
35 35 35 35 35 35 35 35 35 36
36 36 36 36 36 36 36 36 36 36
36 36 36 37 37 37 37 37 37 37
37 37 37 37 37 37 37 38 38 38
38 38 38 38 38 38 38 38 38 38
38 39 39 39 39 39 39 39 39 39
39 39 39 39 39 40 40 40 40 40
40 40 40 40 40 40 40 40 40 41
41 41 41 41 41 41 41 41 41 41
41 41 41 42 42 42 42 42 42 42
42 42 42 42 42 42 42 43 43 43
43 43 43 43 43 43 43 43 43 43
43 44 44 44 44 44 44 44 44 44
44 44 44 44 44 45 45 45 45 45
45 45 45 45 45 45 45 45 45 45
46 46 46 46 46 46 46 46 46 46
46 46 46 46 46 47 47 47 47 47
47 47 47 47 47 47 47 47 47 47
48 48 48 48 48 48 48 48 48 48
48 48 48 48 48 49 49 49 49 49
49 49 49 49 49 49 49 49 49 49
50 50 50 50 50 50 50 50 50 50
50 50 50 50 50 50 51 51 51 51
51 51 51 51 51 51 51 51 51 51
51 51 52 52 52 52 52 52 52 52
52 52 52 52 52 52 52 52 53 53
53 53 53 53 53 53 53 53 53 53
53 53 53 53 53 54 54 54 54 54
54 54 54 54 54 54 54 54 54 54
54 54 55 55 55 55 55 55 55 55
55 55 55 55 55 55 55 55 55 56
56 56 56 56 56 56 56 56 56 56
56 56 56 56 56 56 56 57 57 57
57 57 57 57 57 57 57 57 57 57
57 57 57 57 57 58 58 58 58 58
58 58 58 58 58 58 58 58 58 58
58 58 58 59 59 59 59 59 59 59
59 59 59 59 59 59 59 59 59 59
59 60 60 60 60 60 60 60 60 60
60 60 60 60 60 60 60 60 60 60
61 61 61 61 61 61 61 61 61 61
61 61 61 61 61 61 61 61 61 62
62 62 62 62 62 62 62 62 62 62
62 62 62 62 62 62 62 62 63 63
63 63 63 63 63 63 63 63 63 63
63 63 63 63 63 63 63 63 64 64
64 64 64 64 64 64 64 64 64 64
64 64 64 64 64 64 64 64 65 65
65 65 65 65 65 65 65 65 65 65
65 65 65 65 65 65 65 65 66 66
66 66 66 66 66 66 66 66 66 66
66 66 66 66 66 66 66 66 66 67
67 67 67 67 67 67 67 67 67 67
67 67 67 67 67 67 67 67 67 67
68 68 68 68 68 68 68 68 68 68
68 68 68 68 68 68 68 68 68 68
68 69 69 69 69 69 69 69 69 69
69 69 69 69 69 69 69 69 69 69
69 69 69 70 70 70 70 70 70 70
70 70 70 70 70 70 70 70 70 70
70 70 70 70 70 71 71 71 71 71
71 71 71 71 71 71 71 71 71 71
71 71 71 71 71 71 71 72 72 72
72 72 72 72 72 72 72 72 72 72
72 72 72 72 72 72 72 72 72 73
73 73 73 73 73 73 73 73 73 73
73 73 73 73 73 73 73 73 73 73
73 74 74 74 74 74 74 74 74 74
74 74 74 74 74 74 74 74 74 74
74 74 74 75 75 75 75 75 75 75
75 75 75 75 75 75 75 75 75 75
75 75 75 75 75 76 76 76 76 76
76 76 76 76 76 76 76 76 76 76
76 76 76 76 76 76 76 77 77 77
77 77 77 77 77 77 77 77 77 77
77 77 77 77 77 77 77 77 77 78
78 78 78 78 78 78 78 78 78 78
78 78 78 78 78 78 78 78 78 78
78 79 79 79 79 79 79 79 79 79
79 79 79 79 79 79 79 79 79 79
79 79 79 80 80 80 80 80 80 80
80 80 80 80 80 80 80 80 80 80
80 80 80 80 80 80 81 81 81 81
81 81 81 81 81 81 81 81 81 81
81 81 81 81 81 81 81 81 81 82
82 82 82 82 82 82 82 82 82 82
82 82 82 82 82 82 82 82 82 82
82 82 83 83 83 83 83 83 83 83
83 83 83 83 83 83 83 83 83 83
83 83 83 83 83 84 84 84 84 84
84 84 84 84 84 84 84 84 84 84
84 84 84 84 84 84 84 84 85 85
85 85 85 85 85 85 85 85 85 85
85 85 85 85 85 85 85 85 85 85
85 85 86 86 86 86 86 86 86 86
86 86 86 86 86 86 86 86 86 86
86 86 86 86 86 86 87 87 87 87
87 87 87 87 87 87 87 87 87 87
87 87 87 87 87 87 87 87 87 87
88 88 88 88 88 88 88 88 88 88
88 88 88 88 88 88 88 88 88 88
88 88 88 88 88 89 89 89 89 89
89 89 89 89 89 89 89 89 89 89
89 89 89 89 89 89 89 89 89 89
90 90 90 90 90 90 90 90 90 90
90 90 90 90 90 90 90 90 90 90
90 90 90 90 90 91 91 91 91 91
91 91 91 91 91 91 91 91 91 91
91 91 91 91 91 91 91 91 91 91
92 92 92 92 92 92 92 92 92 92
92 92 92 92 92 92 92 92 92 92
92 92 92 92 92 92 93 93 93 93
93 93 93 93 93 93 93 93 93 93
93 93 93 93 93 93 93 93 93 93
93 93 94 94 94 94 94 94 94 94
94 94 94 94 94 94 94 94 94 94
94 94 94 94 94 94 94 94 95 95
95 95 95 95 95 95 95 95 95 95
95 95 95 95 95 95 95 95 95 95
95 95 95 95 95 96 96 96 96 96
96 96 96 96 96 96 96 96 96 96
96 96 96 96 96 96 96 96 96 96
96 96 97 97 97 97 97 97 97 97
97 97 97 97 97 97 97 97 97 97
97 97 97 97 97 97 97 97 97 97
98 98 98 98 98 98 98 98 98 98
98 98 98 98 98 98 98 98 98 98
98 98 98 98 98 98 98 98 99 99
99 99 99 99 99 99 99 99 99 99
99 99 99 99 99 99 99 99 99 99
99 99 99 99 99 99 100 100 100 100
100 100 100 100 100 100 100 100 100 100
100 100 100 100 100 100 100 100 100 100
100 100 100 100 100 101 101 101 101 101
101 101 101 101 101 101 101 101 101 101
101 101 101 101 101 101 101 101 101 101
101 101 101 101 102 102 102 102 102 102
102 102 102 102 102 102 102 102 102 102
102 102 102 102 102 102 102 102 102 102
102 102 102 102 103 103 103 103 103 103
103 103 103 103 103 103 103 103 103 103
103 103 103 103 103 103 103 103 103 103
103 103 103 103 104 104 104 104 104 104
104 104 104 104 104 104 104 104 104 104
104 104 104 104 104 104 104 104 104 104
104 104 104 104 104 105 105 105 105 105
105 105 105 105 105 105 105 105 105 105
105 105 105 105 105 105 105 105 105 105
105 105 105 105 105 105 106 106 106 106
106 106 106 106 106 106 106 106 106 106
106 106 106 106 106 106 106 106 106 106
106 106 106 106 106 106 106 106 107 107
107 107 107 107 107 107 107 107 107 107
107 107 107 107 107 107 107 107 107 107
107 107 107 107 107 107 107 107 107 107
108 108 108 108 108 108 108 108 108 108
108 108 108 108 108 108 108 108 108 108
108 108 108 108 108 108 108 108 108 108
108 108 108 109 109 109 109 109 109 109
109 109 109 109 109 109 109 109 109 109
109 109 109 109 109 109 109 109 109 109
109 109 109 109 109 109 110 110 110 110
110 110 110 110 110 110 110 110 110 110
110 110 110 110 110 110 110 110 110 110
110 110 110 110 110 110 110 110 110 110
111 111 111 111 111 111 111 111 111 111
111 111 111 111 111 111 111 111 111 111
111 111 111 111 111 111 111 111 111 111
111 111 111 111 112 112 112 112 112 112
112 112 112 112 112 112 112 112 112 112
112 112 112 112 112 112 112 112 112 112
112 112 112 112 112 112 112 112 112 113
113 113 113 113 113 113 113 113 113 113
113 113 113 113 113 113 113 113 113 113
113 113 113 113 113 113 113 113 113 113
113 113 113 113 114 114 114 114 114 114
114 114 114 114 114 114 114 114 114 114
114 114 114 114 114 114 114 114 114 114
114 114 114 114 114 114 114 114 114 114
115 115 115 115 115 115 115 115 115 115
115 115 115 115 115 115 115 115 115 115
115 115 115 115 115 115 115 115 115 115
115 115 115 115 115 115 115 116 116 116
116 116 116 116 116 116 116 116 116 116
116 116 116 116 116 116 116 116 116 116
116 116 116 116 116 116 116 116 116 116
116 116 116 116 117 117 117 117 117 117
117 117 117 117 117 117 117 117 117 117
117 117 117 117 117 117 117 117 117 117
117 117 117 117 117 117 117 117 117 117
117 117 118 118 118 118 118 118 118 118
118 118 118 118 118 118 118 118 118 118
118 118 118 118 118 118 118 118 118 118
118 118 118 118 118 118 118 118 118 118
119 119 119 119 119 119 119 119 119 119
119 119 119 119 119 119 119 119 119 119
119 119 119 119 119 119 119 119 119 119
119 119 119 119 119 119 119 119 119 120
120 120 120 120 120 120 120 120 120 120
120 120 120 120 120 120 120 120 120 120
120 120 120 120 120 120 120 120 120 120
120 120 120 120 120 120 120 120 120 121
121 121 121 121 121 121 121 121 121 121
121 121 121 121 121 121 121 121 121 121
121 121 121 121 121 121 121 121 121 121
121 121 121 121 121 121 121 121 121 122
122 122 122 122 122 122 122 122 122 122
122 122 122 122 122 122 122 122 122 122
122 122 122 122 122 122 122 122 122 122
122 122 122 122 122 122 122 122 122 122
123 123 123 123 123 123 123 123 123 123
123 123 123 123 123 123 123 123 123 123
123 123 123 123 123 123 123 123 123 123
123 123 123 123 123 123 123 123 123 123
123 123 124 124 124 124 124 124 124 124
124 124 124 124 124 124 124 124 124 124
124 124 124 124 124 124 124 124 124 124
124 124 124 124 124 124 124 124 124 124
124 124 124 124 125 125 125 125 125 125
125 125 125 125 125 125 125 125 125 125
125 125 125 125 125 125 125 125 125 125
125 125 125 125 125 125 125 125 125 125
125 125 125 125 125 125 125 126 126 126
126 126 126 126 126 126 126 126 126 126
126 126 126 126 126 126 126 126 126 126
126 126 126 126 126 126 126 126 126 126
126 126 126 126 126 126 126 126 126 126
126 127 127 127 127 127 127 127 127 127
127 127 127 127 127 127 127 127 127 127
127 127 127 127 127 127 127 127 127 127
127 127 127 127 127 127 127 127 127 127
127 127 127 127 127 128 128 128 128 128
128 128 128 128 128 128 128 128 128 128
128 128 128 128 128 128 128 128 128 128
128 128 128 128 128 128 128 128 128 128
128 128 128 128 128 128 128 128 128 128
129 129 129 129 129 129 129 129 129 129
129 129 129 129 129 129 129 129 129 129
129 129 129 129 129 129 129 129 129 129
129 129 129 129 129 129 129 129 129 129
129 129 129 129 129 129 130 130 130 130
130 130 130 130 130 130 130 130 130 130
130 130 130 130 130 130 130 130 130 130
130 130 130 130 130 130 130 130 130 130
130 130 130 130 130 130 130 130 130 130
130 130 130 131 131 131 131 131 131 131
131 131 131 131 131 131 131 131 131 131
131 131 131 131 131 131 131 131 131 131
131 131 131 131 131 131 131 131 131 131
131 131 131 131 131 131 131 131 131 131
131 132 132 132 132 132 132 132 132 132
132 132 132 132 132 132 132 132 132 132
132 132 132 132 132 132 132 132 132 132
132 132 132 132 132 132 132 132 132 132
132 132 132 132 132 132 132 132 132 133
133 133 133 133 133 133 133 133 133 133
133 133 133 133 133 133 133 133 133 133
133 133 133 133 133 133 133 133 133 133
133 133 133 133 133 133 133 133 133 133
133 133 133 133 133 133 133 133 134 134
134 134 134 134 134 134 134 134 134 134
134 134 134 134 134 134 134 134 134 134
134 134 134 134 134 134 134 134 134 134
134 134 134 134 134 134 134 134 134 134
134 134 134 134 134 134 134 134 135 135
135 135 135 135 135 135 135 135 135 135
135 135 135 135 135 135 135 135 135 135
135 135 135 135 135 135 135 135 135 135
135 135 135 135 135 135 135 135 135 135
135 135 135 135 135 135 135 135 135 136
136 136 136 136 136 136 136 136 136 136
136 136 136 136 136 136 136 136 136 136
136 136 136 136 136 136 136 136 136 136
136 136 136 136 136 136 136 136 136 136
136 136 136 136 136 136 136 136 136 136
136 137 137 137 137 137 137 137 137 137
137 137 137 137 137 137 137 137 137 137
137 137 137 137 137 137 137 137 137 137
137 137 137 137 137 137 137 137 137 137
137 137 137 137 137 137 137 137 137 137
137 137 137 137 138 138 138 138 138 138
138 138 138 138 138 138 138 138 138 138
138 138 138 138 138 138 138 138 138 138
138 138 138 138 138 138 138 138 138 138
138 138 138 138 138 138 138 138 138 138
138 138 138 138 138 138 138 139 139 139
139 139 139 139 139 139 139 139 139 139
139 139 139 139 139 139 139 139 139 139
139 139 139 139 139 139 139 139 139 139
139 139 139 139 139 139 139 139 139 139
139 139 139 139 139 139 139 139 139 139
139 140 140 140 140 140 140 140 140 140
140 140 140 140 140 140 140 140 140 140
140 140 140 140 140 140 140 140 140 140
140 140 140 140 140 140 140 140 140 140
140 140 140 140 140 140 140 140 140 140
140 140 140 140 140 140 141 141 141 141
141 141 141 141 141 141 141 141 141 141
141 141 141 141 141 141 141 141 141 141
141 141 141 141 141 141 141 141 141 141
141 141 141 141 141 141 141 141 141 141
141 141 141 141 141 141 141 141 141 141
141 141 142 142 142 142 142 142 142 142
142 142 142 142 142 142 142 142 142 142
142 142 142 142 142 142 142 142 142 142
142 142 142 142 142 142 142 142 142 142
142 142 142 142 142 142 142 142 142 142
142 142 142 142 142 142 142 142 142 143
143 143 143 143 143 143 143 143 143 143
143 143 143 143 143 143 143 143 143 143
143 143 143 143 143 143 143 143 143 143
143 143 143 143 143 143 143 143 143 143
143 143 143 143 143 143 143 143 143 143
143 143 143 143 143 143 143 144 144 144
144 144 144 144 144 144 144 144 144 144
144 144 144 144 144 144 144 144 144 144
144 144 144 144 144 144 144 144 144 144
144 144 144 144 144 144 144 144 144 144
144 144 144 144 144 144 144 144 144 144
144 144 144 144 144 144 145 145 145 145
145 145 145 145 145 145 145 145 145 145
145 145 145 145 145 145 145 145 145 145
145 145 145 145 145 145 145 145 145 145
145 145 145 145 145 145 145 145 145 145
145 145 145 145 145 145 145 145 145 145
145 145 145 145 145 145 146 146 146 146
146 146 146 146 146 146 146 146 146 146
146 146 146 146 146 146 146 146 146 146
146 146 146 146 146 146 146 146 146 146
146 146 146 146 146 146 146 146 146 146
146 146 146 146 146 146 146 146 146 146
146 146 146 146 146 146 146 147 147 147
147 147 147 147 147 147 147 147 147 147
147 147 147 147 147 147 147 147 147 147
147 147 147 147 147 147 147 147 147 147
147 147 147 147 147 147 147 147 147 147
147 147 147 147 147 147 147 147 147 147
147 147 147 147 147 147 147 147 147 148
148 148 148 148 148 148 148 148 148 148
148 148 148 148 148 148 148 148 148 148
148 148 148 148 148 148 148 148 148 148
148 148 148 148 148 148 148 148 148 148
148 148 148 148 148 148 148 148 148 148
148 148 148 148 148 148 148 148 148 148
148 148 149 149 149 149 149 149 149 149
149 149 149 149 149 149 149 149 149 149
149 149 149 149 149 149 149 149 149 149
149 149 149 149 149 149 149 149 149 149
149 149 149 149 149 149 149 149 149 149
149 149 149 149 149 149 149 149 149 149
149 149 149 149 149 149 150 150 150 150
150 150 150 150 150 150 150 150 150 150
150 150 150 150 150 150 150 150 150 150
150 150 150 150 150 150 150 150 150 150
150 150 150 150 150 150 150 150 150 150
150 150 150 150 150 150 150 150 150 150
150 150 150 150 150 150 150 150 150 150
150 151 151 151 151 151 151 151 151 151
151 151 151 151 151 151 151 151 151 151
151 151 151 151 151 151 151 151 151 151
151 151 151 151 151 151 151 151 151 151
151 151 151 151 151 151 151 151 151 151
151 151 151 151 151 151 151 151 151 151
151 151 151 151 151 151 151 152 152 152
152 152 152 152 152 152 152 152 152 152
152 152 152 152 152 152 152 152 152 152
152 152 152 152 152 152 152 152 152 152
152 152 152 152 152 152 152 152 152 152
152 152 152 152 152 152 152 152 152 152
152 152 152 152 152 152 152 152 152 152
152 152 152 152 153 153 153 153 153 153
153 153 153 153 153 153 153 153 153 153
153 153 153 153 153 153 153 153 153 153
153 153 153 153 153 153 153 153 153 153
153 153 153 153 153 153 153 153 153 153
153 153 153 153 153 153 153 153 153 153
153 153 153 153 153 153 153 153 153 153
153 153 154 154 154 154 154 154 154 154
154 154 154 154 154 154 154 154 154 154
154 154 154 154 154 154 154 154 154 154
154 154 154 154 154 154 154 154 154 154
154 154 154 154 154 154 154 154 154 154
154 154 154 154 154 154 154 154 154 154
154 154 154 154 154 154 154 154 154 154
154 154 155 155 155 155 155 155 155 155
155 155 155 155 155 155 155 155 155 155
155 155 155 155 155 155 155 155 155 155
155 155 155 155 155 155 155 155 155 155
155 155 155 155 155 155 155 155 155 155
155 155 155 155 155 155 155 155 155 155
155 155 155 155 155 155 155 155 155 155
155 155 155 156 156 156 156 156 156 156
156 156 156 156 156 156 156 156 156 156
156 156 156 156 156 156 156 156 156 156
156 156 156 156 156 156 156 156 156 156
156 156 156 156 156 156 156 156 156 156
156 156 156 156 156 156 156 156 156 156
156 156 156 156 156 156 156 156 156 156
156 156 156 156 156 157 157 157 157 157
157 157 157 157 157 157 157 157 157 157
157 157 157 157 157 157 157 157 157 157
157 157 157 157 157 157 157 157 157 157
157 157 157 157 157 157 157 157 157 157
157 157 157 157 157 157 157 157 157 157
157 157 157 157 157 157 157 157 157 157
157 157 157 157 157 157 157 157 158 158
158 158 158 158 158 158 158 158 158 158
158 158 158 158 158 158 158 158 158 158
158 158 158 158 158 158 158 158 158 158
158 158 158 158 158 158 158 158 158 158
158 158 158 158 158 158 158 158 158 158
158 158 158 158 158 158 158 158 158 158
158 158 158 158 158 158 158 158 158 158
158 158 159 159 159 159 159 159 159 159
159 159 159 159 159 159 159 159 159 159
159 159 159 159 159 159 159 159 159 159
159 159 159 159 159 159 159 159 159 159
159 159 159 159 159 159 159 159 159 159
159 159 159 159 159 159 159 159 159 159
159 159 159 159 159 159 159 159 159 159
159 159 159 159 159 159 159 159 160 160
160 160 160 160 160 160 160 160 160 160
160 160 160 160 160 160 160 160 160 160
160 160 160 160 160 160 160 160 160 160
160 160 160 160 160 160 160 160 160 160
160 160 160 160 160 160 160 160 160 160
160 160 160 160 160 160 160 160 160 160
160 160 160 160 160 160 160 160 160 160
160 160 160 160 160 161 161 161 161 161
161 161 161 161 161 161 161 161 161 161
161 161 161 161 161 161 161 161 161 161
161 161 161 161 161 161 161 161 161 161
161 161 161 161 161 161 161 161 161 161
161 161 161 161 161 161 161 161 161 161
161 161 161 161 161 161 161 161 161 161
161 161 161 161 161 161 161 161 161 161
161 161 161 162 162 162 162 162 162 162
162 162 162 162 162 162 162 162 162 162
162 162 162 162 162 162 162 162 162 162
162 162 162 162 162 162 162 162 162 162
162 162 162 162 162 162 162 162 162 162
162 162 162 162 162 162 162 162 162 162
162 162 162 162 162 162 162 162 162 162
162 162 162 162 162 162 162 162 162 162
162 162 163 163 163 163 163 163 163 163
163
4.0000000000e-2 1.2000000000e-1 2.0000000000e-1 2.8000000000e-1 3.6000000000e-1 4.4400000000e-1
5.3200000000e-1 6.2000000000e-1 7.0800000000e-1 7.9600000000e-1 8.8400000000e-1 9.7200000000e-1
1.0600000000e+0 1.1480000000e+0 1.2360000000e+0 1.3240000000e+0 1.4120000000e+0 1.5040000000e+0
1.6000000000e+0 1.6960000000e+0 1.7920000000e+0 1.8880000000e+0 1.9840000000e+0 2.0800000000e+0
2.1760000000e+0 2.2720000000e+0 2.3720000000e+0 2.4760000000e+0 2.5800000000e+0 2.6840000000e+0
2.7880000000e+0 2.8920000000e+0 2.9960000000e+0 3.1040000000e+0 3.2160000000e+0 3.3280000000e+0
3.4400000000e+0 3.5520000000e+0 3.6640000000e+0 3.7760000000e+0 3.8880000000e+0 4.0000000000e+0
4.1120000000e+0 4.2240000000e+0 4.3400000000e+0 4.4600000000e+0 4.5800000000e+0 4.7000000000e+0
4.8200000000e+0 4.9440000000e+0 5.0720000000e+0 5.2000000000e+0 5.3320000000e+0 5.4680000000e+0
5.6040000000e+0 5.7440000000e+0 5.8880000000e+0 6.0320000000e+0 6.1760000000e+0 6.3240000000e+0
6.4760000000e+0 6.6280000000e+0 6.7840000000e+0 6.9440000000e+0 7.1040000000e+0 7.2680000000e+0
7.4360000000e+0 7.6040000000e+0 7.7760000000e+0 7.9520000000e+0 8.1280000000e+0 8.3040000000e+0
8.4800000000e+0 8.6560000000e+0 8.8320000000e+0 9.0080000000e+0 9.1840000000e+0 9.3600000000e+0
9.5360000000e+0 9.7160000000e+0 9.9000000000e+0 1.0084000000e+1 1.0268000000e+1 1.0452000000e+1
1.0640000000e+1 1.0832000000e+1 1.1024000000e+1 1.1220000000e+1 1.1420000000e+1 1.1620000000e+1
1.1820000000e+1 1.2024000000e+1 1.2232000000e+1 1.2440000000e+1 1.2652000000e+1 1.2868000000e+1
1.3088000000e+1 1.3312000000e+1 1.3536000000e+1 1.3764000000e+1 1.3996000000e+1 1.4232000000e+1
1.4472000000e+1 1.4716000000e+1 1.4964000000e+1 1.5216000000e+1 1.5472000000e+1 1.5732000000e+1
1.5996000000e+1 1.6264000000e+1 1.6536000000e+1 1.6812000000e+1 1.7092000000e+1 1.7376000000e+1
1.7668000000e+1 1.7964000000e+1 1.8264000000e+1 1.8568000000e+1 1.8876000000e+1 1.9192000000e+1
1.9512000000e+1 1.9836000000e+1 2.0168000000e+1 2.0504000000e+1 2.0844000000e+1 2.1192000000e+1
2.1544000000e+1 2.1900000000e+1 2.2264000000e+1 2.2636000000e+1 2.3016000000e+1 2.3400000000e+1
2.3788000000e+1 2.4184000000e+1 2.4588000000e+1 2.5000000000e+1 2.5420000000e+1 2.5844000000e+1
2.6272000000e+1 2.6708000000e+1 2.7152000000e+1 2.7604000000e+1 2.8064000000e+1 2.8532000000e+1
2.9008000000e+1 2.9492000000e+1 2.9984000000e+1 3.0484000000e+1 3.0992000000e+1 3.1508000000e+1
3.2032000000e+1 3.2564000000e+1 3.3104000000e+1 3.3656000000e+1 3.4220000000e+1 3.4792000000e+1
3.5372000000e+1 3.5960000000e+1 3.6560000000e+1 3.7172000000e+1 3.7792000000e+1 3.8420000000e+1
3.8772000000e+1
1 1 1 1 1 1 1 1 1 1
2 2 2 2 2 2 2 2 2 2
3 3 3 3 3 3 3 3 3 3
4 4 4 4 4 4 4 4 4 4
5 5 5 5 5 5 5 5 5 5
6 6 6 6 6 6 6 6 6 6
7 7 7 7 7 7 7 7 7 7
8 8 8 8 8 8 8 8 8 8
9 9 9 9 9 9 9 9 9 9
10 10 10 10 10 10 10 10 10 10
10 11 11 11 11 11 11 11 11 11
11 11 12 12 12 12 12 12 12 12
12 12 12 13 13 13 13 13 13 13
13 13 13 13 14 14 14 14 14 14
14 14 14 14 14 15 15 15 15 15
15 15 15 15 15 15 16 16 16 16
16 16 16 16 16 16 16 17 17 17
17 17 17 17 17 17 17 17 18 18
18 18 18 18 18 18 18 18 18 19
19 19 19 19 19 19 19 19 19 19
20 20 20 20 20 20 20 20 20 20
20 21 21 21 21 21 21 21 21 21
21 21 22 22 22 22 22 22 22 22
22 22 22 23 23 23 23 23 23 23
23 23 23 23 24 24 24 24 24 24
24 24 24 24 24 25 25 25 25 25
25 25 25 25 25 25 26 26 26 26
26 26 26 26 26 26 26 27 27 27
27 27 27 27 27 27 27 27 28 28
28 28 28 28 28 28 28 28 28 29
29 29 29 29 29 29 29 29 29 29
30 30 30 30 30 30 30 30 30 30
30 31 31 31 31 31 31 31 31 31
31 31 32 32 32 32 32 32 32 32
32 32 32 32 33 33 33 33 33 33
33 33 33 33 33 33 34 34 34 34
34 34 34 34 34 34 34 34 35 35
35 35 35 35 35 35 35 35 35 35
36 36 36 36 36 36 36 36 36 36
36 36 37 37 37 37 37 37 37 37
37 37 37 37 38 38 38 38 38 38
38 38 38 38 38 38 39 39 39 39
39 39 39 39 39 39 39 39 40 40
40 40 40 40 40 40 40 40 40 40
41 41 41 41 41 41 41 41 41 41
41 41 42 42 42 42 42 42 42 42
42 42 42 42 43 43 43 43 43 43
43 43 43 43 43 43 44 44 44 44
44 44 44 44 44 44 44 44 45 45
45 45 45 45 45 45 45 45 45 45
46 46 46 46 46 46 46 46 46 46
46 46 46 47 47 47 47 47 47 47
47 47 47 47 47 47 48 48 48 48
48 48 48 48 48 48 48 48 48 49
49 49 49 49 49 49 49 49 49 49
49 49 50 50 50 50 50 50 50 50
50 50 50 50 50 51 51 51 51 51
51 51 51 51 51 51 51 51 52 52
52 52 52 52 52 52 52 52 52 52
52 53 53 53 53 53 53 53 53 53
53 53 53 53 54 54 54 54 54 54
54 54 54 54 54 54 54 55 55 55
55 55 55 55 55 55 55 55 55 55
56 56 56 56 56 56 56 56 56 56
56 56 56 57 57 57 57 57 57 57
57 57 57 57 57 57 57 58 58 58
58 58 58 58 58 58 58 58 58 58
58 59 59 59 59 59 59 59 59 59
59 59 59 59 59 60 60 60 60 60
60 60 60 60 60 60 60 60 60 61
61 61 61 61 61 61 61 61 61 61
61 61 61 62 62 62 62 62 62 62
62 62 62 62 62 62 62 63 63 63
63 63 63 63 63 63 63 63 63 63
63 64 64 64 64 64 64 64 64 64
64 64 64 64 64 65 65 65 65 65
65 65 65 65 65 65 65 65 65 65
66 66 66 66 66 66 66 66 66 66
66 66 66 66 66 67 67 67 67 67
67 67 67 67 67 67 67 67 67 67
68 68 68 68 68 68 68 68 68 68
68 68 68 68 68 69 69 69 69 69
69 69 69 69 69 69 69 69 69 69
70 70 70 70 70 70 70 70 70 70
70 70 70 70 70 71 71 71 71 71
71 71 71 71 71 71 71 71 71 71
72 72 72 72 72 72 72 72 72 72
72 72 72 72 72 72 73 73 73 73
73 73 73 73 73 73 73 73 73 73
73 73 74 74 74 74 74 74 74 74
74 74 74 74 74 74 74 74 75 75
75 75 75 75 75 75 75 75 75 75
75 75 75 75 76 76 76 76 76 76
76 76 76 76 76 76 76 76 76 76
77 77 77 77 77 77 77 77 77 77
77 77 77 77 77 77 78 78 78 78
78 78 78 78 78 78 78 78 78 78
78 78 78 79 79 79 79 79 79 79
79 79 79 79 79 79 79 79 79 79
80 80 80 80 80 80 80 80 80 80
80 80 80 80 80 80 80 81 81 81
81 81 81 81 81 81 81 81 81 81
81 81 81 81 82 82 82 82 82 82
82 82 82 82 82 82 82 82 82 82
82 83 83 83 83 83 83 83 83 83
83 83 83 83 83 83 83 83 83 84
84 84 84 84 84 84 84 84 84 84
84 84 84 84 84 84 84 85 85 85
85 85 85 85 85 85 85 85 85 85
85 85 85 85 85 86 86 86 86 86
86 86 86 86 86 86 86 86 86 86
86 86 86 87 87 87 87 87 87 87
87 87 87 87 87 87 87 87 87 87
87 87 88 88 88 88 88 88 88 88
88 88 88 88 88 88 88 88 88 88
88 89 89 89 89 89 89 89 89 89
89 89 89 89 89 89 89 89 89 89
90 90 90 90 90 90 90 90 90 90
90 90 90 90 90 90 90 90 90 91
91 91 91 91 91 91 91 91 91 91
91 91 91 91 91 91 91 91 91 92
92 92 92 92 92 92 92 92 92 92
92 92 92 92 92 92 92 92 92 93
93 93 93 93 93 93 93 93 93 93
93 93 93 93 93 93 93 93 93 94
94 94 94 94 94 94 94 94 94 94
94 94 94 94 94 94 94 94 94 94
95 95 95 95 95 95 95 95 95 95
95 95 95 95 95 95 95 95 95 95
95 96 96 96 96 96 96 96 96 96
96 96 96 96 96 96 96 96 96 96
96 96 97 97 97 97 97 97 97 97
97 97 97 97 97 97 97 97 97 97
97 97 97 97 98 98 98 98 98 98
98 98 98 98 98 98 98 98 98 98
98 98 98 98 98 98 99 99 99 99
99 99 99 99 99 99 99 99 99 99
99 99 99 99 99 99 99 99 100 100
100 100 100 100 100 100 100 100 100 100
100 100 100 100 100 100 100 100 100 100
101 101 101 101 101 101 101 101 101 101
101 101 101 101 101 101 101 101 101 101
101 101 101 102 102 102 102 102 102 102
102 102 102 102 102 102 102 102 102 102
102 102 102 102 102 102 103 103 103 103
103 103 103 103 103 103 103 103 103 103
103 103 103 103 103 103 103 103 103 104
104 104 104 104 104 104 104 104 104 104
104 104 104 104 104 104 104 104 104 104
104 104 104 105 105 105 105 105 105 105
105 105 105 105 105 105 105 105 105 105
105 105 105 105 105 105 105 106 106 106
106 106 106 106 106 106 106 106 106 106
106 106 106 106 106 106 106 106 106 106
106 107 107 107 107 107 107 107 107 107
107 107 107 107 107 107 107 107 107 107
107 107 107 107 107 108 108 108 108 108
108 108 108 108 108 108 108 108 108 108
108 108 108 108 108 108 108 108 108 108
109 109 109 109 109 109 109 109 109 109
109 109 109 109 109 109 109 109 109 109
109 109 109 109 109 110 110 110 110 110
110 110 110 110 110 110 110 110 110 110
110 110 110 110 110 110 110 110 110 110
111 111 111 111 111 111 111 111 111 111
111 111 111 111 111 111 111 111 111 111
111 111 111 111 111 112 112 112 112 112
112 112 112 112 112 112 112 112 112 112
112 112 112 112 112 112 112 112 112 112
112 113 113 113 113 113 113 113 113 113
113 113 113 113 113 113 113 113 113 113
113 113 113 113 113 113 113 114 114 114
114 114 114 114 114 114 114 114 114 114
114 114 114 114 114 114 114 114 114 114
114 114 114 115 115 115 115 115 115 115
115 115 115 115 115 115 115 115 115 115
115 115 115 115 115 115 115 115 115 115
116 116 116 116 116 116 116 116 116 116
116 116 116 116 116 116 116 116 116 116
116 116 116 116 116 116 116 117 117 117
117 117 117 117 117 117 117 117 117 117
117 117 117 117 117 117 117 117 117 117
117 117 117 117 118 118 118 118 118 118
118 118 118 118 118 118 118 118 118 118
118 118 118 118 118 118 118 118 118 118
118 118 119 119 119 119 119 119 119 119
119 119 119 119 119 119 119 119 119 119
119 119 119 119 119 119 119 119 119 119
120 120 120 120 120 120 120 120 120 120
120 120 120 120 120 120 120 120 120 120
120 120 120 120 120 120 120 120 120 121
121 121 121 121 121 121 121 121 121 121
121 121 121 121 121 121 121 121 121 121
121 121 121 121 121 121 121 121 122 122
122 122 122 122 122 122 122 122 122 122
122 122 122 122 122 122 122 122 122 122
122 122 122 122 122 122 122 122 123 123
123 123 123 123 123 123 123 123 123 123
123 123 123 123 123 123 123 123 123 123
123 123 123 123 123 123 123 123 124 124
124 124 124 124 124 124 124 124 124 124
124 124 124 124 124 124 124 124 124 124
124 124 124 124 124 124 124 124 124 125
125 125 125 125 125 125 125 125 125 125
125 125 125 125 125 125 125 125 125 125
125 125 125 125 125 125 125 125 125 125
126 126 126 126 126 126 126 126 126 126
126 126 126 126 126 126 126 126 126 126
126 126 126 126 126 126 126 126 126 126
126 126 127 127 127 127 127 127 127 127
127 127 127 127 127 127 127 127 127 127
127 127 127 127 127 127 127 127 127 127
127 127 127 127 128 128 128 128 128 128
128 128 128 128 128 128 128 128 128 128
128 128 128 128 128 128 128 128 128 128
128 128 128 128 128 128 128 129 129 129
129 129 129 129 129 129 129 129 129 129
129 129 129 129 129 129 129 129 129 129
129 129 129 129 129 129 129 129 129 129
129 130 130 130 130 130 130 130 130 130
130 130 130 130 130 130 130 130 130 130
130 130 130 130 130 130 130 130 130 130
130 130 130 130 130 130 131 131 131 131
131 131 131 131 131 131 131 131 131 131
131 131 131 131 131 131 131 131 131 131
131 131 131 131 131 131 131 131 131 131
131 132 132 132 132 132 132 132 132 132
132 132 132 132 132 132 132 132 132 132
132 132 132 132 132 132 132 132 132 132
132 132 132 132 132 132 132 133 133 133
133 133 133 133 133 133 133 133 133 133
133 133 133 133 133 133 133 133 133 133
133 133 133 133 133 133 133 133 133 133
133 133 133 133 134 134 134 134 134 134
134 134 134 134 134 134 134 134 134 134
134 134 134 134 134 134 134 134 134 134
134 134 134 134 134 134 134 134 134 134
134 134 135 135 135 135 135 135 135 135
135 135 135 135 135 135 135 135 135 135
135 135 135 135 135 135 135 135 135 135
135 135 135 135 135 135 135 135 135 135
135 136 136 136 136 136 136 136 136 136
136 136 136 136 136 136 136 136 136 136
136 136 136 136 136 136 136 136 136 136
136 136 136 136 136 136 136 136 136 136
136 137 137 137 137 137 137 137 137 137
137 137 137 137 137 137 137 137 137 137
137 137 137 137 137 137 137 137 137 137
137 137 137 137 137 137 137 137 137 137
137 137 138 138 138 138 138 138 138 138
138 138 138 138 138 138 138 138 138 138
138 138 138 138 138 138 138 138 138 138
138 138 138 138 138 138 138 138 138 138
138 138 138 138 139 139 139 139 139 139
139 139 139 139 139 139 139 139 139 139
139 139 139 139 139 139 139 139 139 139
139 139 139 139 139 139 139 139 139 139
139 139 139 139 139 139 139 140 140 140
140 140 140 140 140 140 140 140 140 140
140 140 140 140 140 140 140 140 140 140
140 140 140 140 140 140 140 140 140 140
140 140 140 140 140 140 140 140 140 140
140 140 141 141 141 141 141 141 141 141
141 141 141 141 141 141 141 141 141 141
141 141 141 141 141 141 141 141 141 141
141 141 141 141 141 141 141 141 141 141
141 141 141 141 141 141 141 141 142 142
142 142 142 142 142 142 142 142 142 142
142 142 142 142 142 142 142 142 142 142
142 142 142 142 142 142 142 142 142 142
142 142 142 142 142 142 142 142 142 142
142 142 142 142 143 143 143 143 143 143
143 143 143 143 143 143 143 143 143 143
143 143 143 143 143 143 143 143 143 143
143 143 143 143 143 143 143 143 143 143
143 143 143 143 143 143 143 143 143 143
143 144 144 144 144 144 144 144 144 144
144 144 144 144 144 144 144 144 144 144
144 144 144 144 144 144 144 144 144 144
144 144 144 144 144 144 144 144 144 144
144 144 144 144 144 144 144 144 145 145
145 145 145 145 145 145 145 145 145 145
145 145 145 145 145 145 145 145 145 145
145 145 145 145 145 145 145 145 145 145
145 145 145 145 145 145 145 145 145 145
145 145 145 145 145 145 146 146 146 146
146 146 146 146 146 146 146 146 146 146
146 146 146 146 146 146 146 146 146 146
146 146 146 146 146 146 146 146 146 146
146 146 146 146 146 146 146 146 146 146
146 146 146 146 146 147 147 147 147 147
147 147 147 147 147 147 147 147 147 147
147 147 147 147 147 147 147 147 147 147
147 147 147 147 147 147 147 147 147 147
147 147 147 147 147 147 147 147 147 147
147 147 147 147 148 148 148 148 148 148
148 148 148 148 148 148 148 148 148 148
148 148 148 148 148 148 148 148 148 148
148 148 148 148 148 148 148 148 148 148
148 148 148 148 148 148 148 148 148 148
148 148 148 148 149 149 149 149 149 149
149 149 149 149 149 149 149 149 149 149
149 149 149 149 149 149 149 149 149 149
149 149 149 149 149 149 149 149 149 149
149 149 149 149 149 149 149 149 149 149
149 149 149 149 149 150 150 150 150 150
150 150 150 150 150 150 150 150 150 150
150 150 150 150 150 150 150 150 150 150
150 150 150 150 150 150 150 150 150 150
150 150 150 150 150 150 150 150 150 150
150 150 150 150 150 150 151 151 151 151
151 151 151 151 151 151 151 151 151 151
151 151 151 151 151 151 151 151 151 151
151 151 151 151 151 151 151 151 151 151
151 151 151 151 151 151 151 151 151 151
151 151 151 151 151 151 151 151 152 152
152 152 152 152 152 152 152 152 152 152
152 152 152 152 152 152 152 152 152 152
152 152 152 152 152 152 152 152 152 152
152 152 152 152 152 152 152 152 152 152
152 152 152 152 152 152 152 152 152 152
152 153 153 153 153 153 153 153 153 153
153 153 153 153 153 153 153 153 153 153
153 153 153 153 153 153 153 153 153 153
153 153 153 153 153 153 153 153 153 153
153 153 153 153 153 153 153 153 153 153
153 153 153 153 153 154 154 154 154 154
154 154 154 154 154 154 154 154 154 154
154 154 154 154 154 154 154 154 154 154
154 154 154 154 154 154 154 154 154 154
154 154 154 154 154 154 154 154 154 154
154 154 154 154 154 154 154 154 154 154
155 155 155 155 155 155 155 155 155 155
155 155 155 155 155 155 155 155 155 155
155 155 155 155 155 155 155 155 155 155
155 155 155 155 155 155 155 155 155 155
155 155 155 155 155 155 155 155 155 155
155 155 155 155 155 155 156 156 156 156
156 156 156 156 156 156 156 156 156 156
156 156 156 156 156 156 156 156 156 156
156 156 156 156 156 156 156 156 156 156
156 156 156 156 156 156 156 156 156 156
156 156 156 156 156 156 156 156 156 156
156 156 157 157 157 157 157 157 157 157
157 157 157 157 157 157 157 157 157 157
157 157 157 157 157 157 157 157 157 157
157 157 157 157 157 157 157 157 157 157
157 157 157 157 157 157 157 157 157 157
157 157 157 157 157 157 157 157 157 158
158 158 158 158 158 158 158 158 158 158
158 158 158 158 158 158 158 158 158 158
158 158 158 158 158 158 158 158 158 158
158 158 158 158 158 158 158 158 158 158
158 158 158 158 158 158 158 158 158 158
158 158 158 158 158 158 158 159 159 159
159 159 159 159 159 159 159 159 159 159
159 159 159 159 159 159 159 159 159 159
159 159 159 159 159 159 159 159 159 159
159 159 159 159 159 159 159 159 159 159
159 159 159 159 159 159 159 159 159 159
159 159 159 159 159 159 160 160 160 160
160 160 160 160 160 160 160 160 160 160
160 160 160 160 160 160 160 160 160 160
160 160 160 160 160 160 160 160 160 160
160 160 160 160 160 160 160 160 160 160
160 160 160 160 160 160 160 160 160 160
160 160 160 160 160 160 161 161 161 161
161 161 161 161 161 161 161 161 161 161
161 161 161 161 161 161 161 161 161 161
161 161 161 161 161 161 161 161 161 161
161 161 161 161 161 161 161 161 161 161
161 161 161 161 161 161 161 161 161 161
161 161 161 161 161 161 161 162 162 162
162 162 162 162 162 162 162 162 162 162
162 162 162 162 162 162 162 162 162 162
162 162 162 162 162 162 162 162 162 162
162 162 162 162 162 162 162 162 162 162
162 162 162 162 162 162 162 162 162 162
162 162 162 162 162 162 162 162 162 163
163 163 163 163 163 163 163 163 163 163
163 163 163 163 163 163 163 163 163 163
163 163 163 163 163 163 163 163 163 163
163 163 163 163 163 163 163 163 163 163
163 163 163 163 163 163 163 163 163 163
163 163 163 163 163 163 163 163 163 163
163 163 164 164 164 164 164 164 164 164
164 164 164 164 164 164 164 164 164 164
164 164 164 164 164 164 164 164 164 164
164 164 164 164 164 164 164 164 164 164
164 164 164 164 164 164 164 164 164 164
164 164 164 164 164 164 164 164 164 164
164 164 164 164 164 164 165 165 165 165
165 165 165 165 165 165 165 165 165 165
165 165 165 165 165 165 165 165 165 165
165 165 165 165 165 165 165 165 165 165
165 165 165 165 165 165 165 165 165 165
165 165 165 165 165 165 165 165 165 165
165 165 165 165 165 165 165 165 165 165
165 166 166 166 166 166 166 166 166 166
166 166 166 166 166 166 166 166 166 166
166 166 166 166 166 166 166 166 166 166
166 166 166 166 166 166 166 166 166 166
166 166 166 166 166 166 166 166 166 166
166 166 166 166 166 166 166 166 166 166
166 166 166 166 166 166 166 167 167 167
167 167 167 167 167 167 167 167 167 167
167 167 167 167 167 167 167 167 167 167
167 167 167 167 167 167 167 167 167 167
167 167 167 167 167 167 167 167 167 167
167 167 167 167 167 167 167 167 167 167
167 167 167 167 167 167 167 167 167 167
167 167 167 167 167 168 168 168 168 168
168 168 168 168 168 168 168 168 168 168
168 168 168 168 168 168 168 168 168 168
168 168 168 168 168 168 168 168 168 168
168 168 168 168 168 168 168 168 168 168
168 168 168 168 168 168 168 168 168 168
168 168 168 168 168 168 168 168 168 168
168 168 168 168 169 169 169 169 169 169
169 169 169 169 169 169 169 169 169 169
169 169 169 169 169 169 169 169 169 169
169 169 169 169 169 169 169 169 169 169
169 169 169 169 169 169 169 169 169 169
169 169 169 169 169 169 169 169 169 169
169 169 169 169 169 169 169 169 169 169
169 169 169 169 170 170 170 170 170 170
170 170 170 170 170 170 170 170 170 170
170 170 170 170 170 170 170 170 170 170
170 170 170 170 170 170 170 170 170 170
170 170 170 170 170 170 170 170 170 170
170 170 170 170 170 170 170 170 170 170
170 170 170 170 170 170 170 170 170 170
170 170 170 170 170 171 171 171 171 171
171 171 171 171 171 171 171 171 171 171
171 171 171 171 171 171 171 171 171 171
171 171 171 171 171 171 171 171 171 171
171 171 171 171 171 171 171 171 171 171
171 171 171 171 171 171 171 171 171 171
171 171 171 171 171 171 171 171 171 171
171 171 171 171 171 171 171 172 172 172
172 172 172 172 172 172 172 172 172 172
172 172 172 172 172 172 172 172 172 172
172 172 172 172 172 172 172 172 172 172
172 172 172 172 172 172 172 172 172 172
172 172 172 172 172 172 172 172 172 172
172 172 172 172 172 172 172 172 172 172
172 172 172 172 172 172 172 172 172 172
173 173 173 173 173 173 173 173 173 173
173 173 173 173 173 173 173 173 173 173
173 173 173 173 173 173 173 173 173 173
173 173 173 173 173 173 173 173 173 173
173 173 173 173 173 173 173 173 173 173
173 173 173 173 173 173 173 173 173 173
173 173 173 173 173 173 173 173 173 173
173 173 173 173 173 174 174 174 174 174
174 174 174 174 174 174 174 174 174 174
174 174 174 174 174 174 174 174 174 174
174 174 174 174 174 174 174 174 174 174
174 174 174 174 174 174 174 174 174 174
174 174 174 174 174 174 174 174 174 174
174 174 174 174 174 174 174 174 174 174
174 174 174 174 174 174 174 174 174 174
174 175 175 175 175 175 175 175 175 175
175 175 175 175 175 175 175 175 175 175
175 175 175 175 175 175 175 175 175 175
175 175 175 175 175 175 175 175 175 175
175 175 175 175 175 175 175 175 175 175
175 175 175 175 175 175 175 175 175 175
175 175 175 175 175 175 175 175 175 175
175 175 175 175 175 175 175 175 176 176
176 176 176 176 176 176 176 176 176 176
176 176 176 176 176 176 176 176 176 176
176 176 176 176 176 176 176 176 176 176
176 176 176 176 176 176 176 176 176 176
176 176 176 176 176 176 176 176 176 176
176 176 176 176 176 176 176 176 176 176
176 176 176 176 176 176 176 176 176 176
176 176 176 176 176 176 177 177 177 177
177 177 177 177 177 177 177 177 177 177
177 177 177 177 177 177 177 177 177 177
177 177 177 177 177 177 177 177 177 177
177 177 177 177 177 177 177 177 177 177
177 177 177 177 177 177 177 177 177 177
177 177 177 177 177 177 177 177 177 177
177 177 177 177 177 177 177 177 177 177
177 177 177 177 177 177 178 178 178 178
178 178 178 178 178 178 178 178 178 178
178 178 178 178 178 178 178 178 178 178
178 178 178 178 178 178 178 178 178 178
178 178 178 178 178 178 178 178 178 178
178 178 178 178 178 178 178 178 178 178
178 178 178 178 178 178 178 178 178 178
178 178 178 178 178 178 178 178 178 178
178 178 178 178 178 178 178 179 179 179
179 179 179 179 179 179 179 179 179 179
179 179 179 179 179 179 179 179 179 179
179 179 179 179 179 179 179 179 179 179
179 179 179 179 179 179 179 179 179 179
179 179 179 179 179 179 179 179 179 179
179 179 179 179 179 179 179 179 179 179
179 179 179 179 179 179 179 179 179 179
179 179 179 179 179 179 179 179 179 180
180 180 180 180 180 180 180 180 180 180
180 180 180 180 180 180 180 180 180 180
180 180 180 180 180 180 180 180 180 180
180 180 180 180 180 180 180 180 180 180
180 180 180 180 180 180 180 180 180 180
180 180 180 180 180 180 180 180 180 180
180 180 180 180 180 180 180 180 180 180
180 180 180 180 180 180 180 180 180 180
180 180 180 181 181 181 181 181 181 181
181 181 181 181 181 181 181 181 181 181
181 181 181 181 181 181 181 181 181 181
181 181 181 181 181 181 181 181 181 181
181 181 181 181 181 181 181 181 181 181
181 181 181 181 181 181 181 181 181 181
181 181 181 181 181 181 181 181 181 181
181 181 181 181 181 181 181 181 181 181
181 181 181 181 181 181 181 181 182 182
182 182 182 182 182 182 182 182 182 182
182 182 182 182 182 182 182 182 182 182
182 182 182 182 182 182 182 182 182 182
182 182 182 182 182 182 182 182 182 182
182 182 182 182 182 182 182 182 182 182
182 182 182 182 182 182 182 182 182 182
182 182 182 182 182 182 182 182 182 182
182 182 182 182 182 182 182 182 182 182
182 182 182 182 182 183 183 183 183 183
183 183 183 183 183 183 183 183 183 183
183 183 183 183 183 183 183 183 183 183
183 183 183 183 183 183 183 183 183 183
183 183 183 183 183 183 183 183 183 183
183 183 183 183 183 183 183 183 183 183
183 183 183 183 183 183 183 183 183 183
183 183 183 183 183 183 183 183 183 183
183 183 183 183 183 183 183 183 183 183
183 183 183 184 184 184 184 184 184 184
184 184 184 184 184 184 184 184 184 184
184 184 184 184 184 184 184 184 184 184
184 184 184 184 184 184 184 184 184 184
184 184 184 184 184 184 184 184 184 184
184 184 184 184 184 184 184 184 184 184
184 184 184 184 184 184 184 184 184 184
184 184 184 184 184 184 184 184 184 184
184 184 184 184 184 184 184 184 184 184
184 184 185 185 185 185 185 185 185 185
185 185 185 185 185 185 185 185 185 185
185 185 185 185 185 185 185 185 185 185
185 185 185 185 185 185 185 185 185 185
185 185 185 185 185 185 185 185 185 185
185 185 185 185 185 185 185 185 185 185
185 185 185 185 185 185 185 185 185 185
185 185 185 185 185 185 185 185 185 185
185 185 185 185 185 185 185 185 185 185
185 185 185 186 186 186 186 186 186 186
186 186 186 186 186 186 186 186 186 186
186 186 186 186 186 186 186 186 186 186
186 186 186 186 186 186 186 186 186 186
186 186 186 186 186 186 186 186 186 186
186 186 186 186 186 186 186 186 186 186
186 186 186 186 186 186 186 186 186 186
186 186 186 186 186 186 186 186 186 186
186 186 186 186 186 186 186 186 186 186
186 186 186 186 186 186 187 187 187 187
187 187 187 187 187 187 187 187 187 187
187 187 187 187 187 187 187 187 187 187
187 187 187 187 187 187 187 187 187 187
187 187 187 187 187 187 187 187 187 187
187 187 187 187 187 187 187 187 187 187
187 187 187 187 187 187 187 187 187 187
187 187 187 187 187 187 187 187 187 187
187 187 187 187 187 187 187 187 187 187
187 187 187 187 187 187 187 187 187 187
188 188 188 188 188 188 188 188 188 188
188 188 188 188 188 188 188 188 188 188
188 188 188 188 188 188 188 188 188 188
188 188 188 188 188 188 188 188 188 188
188 188 188 188 188 188 188 188 188 188
188 188 188 188 188 188 188 188 188 188
188 188 188 188 188 188 188 188 188 188
188 188 188 188 188 188 188 188 188 188
188 188 188 188 188 188 188 188 188 188
188 188 188 188 188 188 189 189 189 189
189 189 189 189 189 189 189 189 189 189
189 189 189 189 189 189 189 189 189 189
189 189 189 189 189 189 189 189 189 189
189 189 189 189 189 189 189 189 189 189
189 189 189 189 189 189 189 189 189 189
189 189 189 189 189 189 189 189 189 189
189 189 189 189 189 189 189 189 189 189
189 189 189 189 189 189 189 189 189 189
189 189 189 189 189 189 189 189 189 189
189 189 189 190 190 190 190 190 190 190
190 190 190 190 190 190 190 190 190 190
190 190 190 190 190 190 190 190 190 190
190 190 190 190 190 190 190 190 190 190
190 190 190 190 190 190 190 190 190 190
190 190 190 190 190 190 190 190 190 190
190 190 190 190 190 190 190 190 190 190
190 190 190 190 190 190 190 190 190 190
190 190 190 190 190 190 190 190 190 190
190 190 190 190 190 190 190 190 190 190
190 190 191 191 191 191 191 191 191 191
191 191 191 191 191 191 191 191 191 191
191 191 191 191 191 191 191 191 191 191
191 191 191 191 191 191 191 191 191 191
191 191 191 191 191 191 191 191 191 191
191 191 191 191 191 191 191 191 191 191
191 191 191 191 191 191 191 191 191 191
191 191 191 191 191 191 191 191 191 191
191 191 191 191 191 191 191 191 191 191
191 191 191 191 191 191 191 191 191 191
191 191 191 192 192 192 192 192 192 192
192 192 192 192 192 192 192 192 192 192
192 192 192 192 192 192 192 192 192 192
192 192 192 192 192 192 192 192 192 192
192 192 192 192 192 192 192 192 192 192
192 192 192 192 192 192 192 192 192 192
192 192 192 192 192 192 192 192 192 192
192 192 192 192 192 192 192 192 192 192
192 192 192 192 192 192 192 192 192 192
192 192 192 192 192 192 192 192 192 192
192 192 192 192 192 193 193 193 193 193
193 193 193 193 193 193 193 193 193 193
193 193 193 193 193 193 193 193 193 193
193 193 193 193 193 193 193 193 193 193
193 193 193 193 193 193 193 193 193 193
193 193 193 193 193 193 193 193 193 193
193 193 193 193 193 193 193 193 193 193
193 193 193 193 193 193 193 193 193 193
193 193 193 193 193 193 193 193 193 193
193 193 193 193 193 193 193 193 193 193
193 193 193 193 193 193 193 193 193 194
194 194 194 194 194 194 194 194 194 194
194 194 194 194 194 194 194 194 194 194
194 194 194 194 194 194 194 194 194 194
194 194 194 194 194 194 194 194 194 194
194 194 194 194 194 194 194 194 194 194
194 194 194 194 194 194 194 194 194 194
194 194 194 194 194 194 194 194 194 194
194 194 194 194 194 194 194 194 194 194
194 194 194 194 194 194 194 194 194 194
194 194 194 194 194 194 194 194 194 194
194 194 194 194 194 195 195 195 195 195
195 195 195 195 195 195 195 195 195 195
195 195 195 195 195 195 195 195 195 195
195 195 195 195 195 195 195 195 195 195
195 195 195 195 195 195 195 195 195 195
195 195 195 195 195 195 195 195 195 195
195 195 195 195 195 195 195 195 195 195
195 195 195 195 195 195 195 195 195 195
195 195 195 195 195 195 195 195 195 195
195 195 195 195 195 195 195 195 195 195
195 195 195 195 195 195 195 195 195 195
195 195 196 196 196 196 196 196 196 196
196 196 196 196 196 196 196 196 196 196
196 196 196 196 196 196 196 196 196 196
196 196 196 196 196 196 196 196 196 196
196 196 196 196 196 196 196 196 196 196
196 196 196 196 196 196 196 196 196 196
196 196
3.5000000000e-2 1.0500000000e-1 1.7500000000e-1 2.4500000000e-1 3.1500000000e-1 3.8500000000e-1
4.5500000000e-1 5.2500000000e-1 5.9500000000e-1 6.6850000000e-1 7.4550000000e-1 8.2250000000e-1
8.9950000000e-1 9.7650000000e-1 1.0535000000e+0 1.1305000000e+0 1.2075000000e+0 1.2845000000e+0
1.3615000000e+0 1.4385000000e+0 1.5155000000e+0 1.5925000000e+0 1.6695000000e+0 1.7465000000e+0
1.8235000000e+0 1.9005000000e+0 1.9775000000e+0 2.0545000000e+0 2.1315000000e+0 2.2085000000e+0
2.2855000000e+0 2.3660000000e+0 2.4500000000e+0 2.5340000000e+0 2.6180000000e+0 2.7020000000e+0
2.7860000000e+0 2.8700000000e+0 2.9540000000e+0 3.0380000000e+0 3.1220000000e+0 3.2060000000e+0
3.2900000000e+0 3.3740000000e+0 3.4580000000e+0 3.5455000000e+0 3.6365000000e+0 3.7275000000e+0
3.8185000000e+0 3.9095000000e+0 4.0005000000e+0 4.0915000000e+0 4.1825000000e+0 4.2735000000e+0
4.3645000000e+0 4.4555000000e+0 4.5500000000e+0 4.6480000000e+0 4.7460000000e+0 4.8440000000e+0
4.9420000000e+0 5.0400000000e+0 5.1380000000e+0 5.2360000000e+0 5.3375000000e+0 5.4425000000e+0
5.5475000000e+0 5.6525000000e+0 5.7575000000e+0 5.8625000000e+0 5.9675000000e+0 6.0760000000e+0
6.1880000000e+0 6.3000000000e+0 6.4120000000e+0 6.5240000000e+0 6.6360000000e+0 6.7515000000e+0
6.8705000000e+0 6.9895000000e+0 7.1085000000e+0 7.2275000000e+0 7.3500000000e+0 7.4760000000e+0
7.6020000000e+0 7.7280000000e+0 7.8575000000e+0 7.9905000000e+0 8.1235000000e+0 8.2565000000e+0
8.3930000000e+0 8.5330000000e+0 8.6730000000e+0 8.8165000000e+0 8.9635000000e+0 9.1105000000e+0
9.2610000000e+0 9.4150000000e+0 9.5690000000e+0 9.7230000000e+0 9.8805000000e+0 1.0041500000e+1
1.0202500000e+1 1.0367000000e+1 1.0535000000e+1 1.0703000000e+1 1.0871000000e+1 1.1042500000e+1
1.1217500000e+1 1.1392500000e+1 1.1567500000e+1 1.1746000000e+1 1.1928000000e+1 1.2110000000e+1
1.2295500000e+1 1.2484500000e+1 1.2673500000e+1 1.2866000000e+1 1.3062000000e+1 1.3261500000e+1
1.3464500000e+1 1.3671000000e+1 1.3881000000e+1 1.4094500000e+1 1.4311500000e+1 1.4532000000e+1
1.4756000000e+1 1.4983500000e+1 1.5218000000e+1 1.5459500000e+1 1.5704500000e+1 1.5953000000e+1
1.6208500000e+1 1.6471000000e+1 1.6740500000e+1 1.7017000000e+1 1.7300500000e+1 1.7591000000e+1
1.7888500000e+1 1.8196500000e+1 1.8515000000e+1 1.8837000000e+1 1.9162500000e+1 1.9491500000e+1
1.9824000000e+1 2.0163500000e+1 2.0506500000e+1 2.0853000000e+1 2.1206500000e+1 2.1563500000e+1
2.1924000000e+1 2.2291500000e+1 2.2666000000e+1 2.3047500000e+1 2.3436000000e+1 2.3828000000e+1
2.4223500000e+1 2.4626000000e+1 2.5035500000e+1 2.5452000000e+1 2.5875500000e+1 2.6306000000e+1
2.6743500000e+1 2.7188000000e+1 2.7639500000e+1 2.8098000000e+1 2.8567000000e+1 2.9046500000e+1
2.9533000000e+1 3.0026500000e+1 3.0527000000e+1 3.1034500000e+1 3.1552500000e+1 3.2081000000e+1
3.2616500000e+1 3.3159000000e+1 3.3712000000e+1 3.4275500000e+1 3.4846000000e+1 3.5427000000e+1
3.6018500000e+1 3.6620500000e+1 3.7233000000e+1 3.7852500000e+1 3.8482500000e+1 3.9126500000e+1
3.9781000000e+1 4.0446000000e+1 4.1121500000e+1 4.1807500000e+1 4.2507500000e+1 4.3218000000e+1
4.3939000000e+1 4.4674000000e+1 4.5419500000e+1 4.6004000000e+1
1 1 1 1 1 1 1 1 1 1
2 2 2 2 2 2 2 2 2 2
3 3 3 3 3 3 3 3 3 3
4 4 4 4 4 4 4 4 4 4
5 5 5 5 5 5 5 5 5 5
6 6 6 6 6 6 6 6 6 6
7 7 7 7 7 7 7 7 7 7
8 8 8 8 8 8 8 8 8 8
9 9 9 9 9 9 9 9 9 9
10 10 10 10 10 10 10 10 10 10
11 11 11 11 11 11 11 11 11 11
12 12 12 12 12 12 12 12 12 12
13 13 13 13 13 13 13 13 13 13
14 14 14 14 14 14 14 14 14 14
15 15 15 15 15 15 15 15 15 15
15 16 16 16 16 16 16 16 16 16
16 16 17 17 17 17 17 17 17 17
17 17 17 18 18 18 18 18 18 18
18 18 18 18 19 19 19 19 19 19
19 19 19 19 19 20 20 20 20 20
20 20 20 20 20 20 21 21 21 21
21 21 21 21 21 21 21 22 22 22
22 22 22 22 22 22 22 22 23 23
23 23 23 23 23 23 23 23 23 24
24 24 24 24 24 24 24 24 24 24
25 25 25 25 25 25 25 25 25 25
25 26 26 26 26 26 26 26 26 26
26 26 27 27 27 27 27 27 27 27
27 27 27 28 28 28 28 28 28 28
28 28 28 28 29 29 29 29 29 29
29 29 29 29 29 30 30 30 30 30
30 30 30 30 30 30 31 31 31 31
31 31 31 31 31 31 31 32 32 32
32 32 32 32 32 32 32 32 33 33
33 33 33 33 33 33 33 33 33 34
34 34 34 34 34 34 34 34 34 34
35 35 35 35 35 35 35 35 35 35
35 36 36 36 36 36 36 36 36 36
36 36 37 37 37 37 37 37 37 37
37 37 37 38 38 38 38 38 38 38
38 38 38 38 39 39 39 39 39 39
39 39 39 39 39 40 40 40 40 40
40 40 40 40 40 40 41 41 41 41
41 41 41 41 41 41 41 41 42 42
42 42 42 42 42 42 42 42 42 42
43 43 43 43 43 43 43 43 43 43
43 43 44 44 44 44 44 44 44 44
44 44 44 44 45 45 45 45 45 45
45 45 45 45 45 45 46 46 46 46
46 46 46 46 46 46 46 46 47 47
47 47 47 47 47 47 47 47 47 47
48 48 48 48 48 48 48 48 48 48
48 48 49 49 49 49 49 49 49 49
49 49 49 49 50 50 50 50 50 50
50 50 50 50 50 50 51 51 51 51
51 51 51 51 51 51 51 51 52 52
52 52 52 52 52 52 52 52 52 52
53 53 53 53 53 53 53 53 53 53
53 53 54 54 54 54 54 54 54 54
54 54 54 54 55 55 55 55 55 55
55 55 55 55 55 55 56 56 56 56
56 56 56 56 56 56 56 56 56 57
57 57 57 57 57 57 57 57 57 57
57 57 58 58 58 58 58 58 58 58
58 58 58 58 58 59 59 59 59 59
59 59 59 59 59 59 59 59 60 60
60 60 60 60 60 60 60 60 60 60
60 61 61 61 61 61 61 61 61 61
61 61 61 61 62 62 62 62 62 62
62 62 62 62 62 62 62 63 63 63
63 63 63 63 63 63 63 63 63 63
64 64 64 64 64 64 64 64 64 64
64 64 64 65 65 65 65 65 65 65
65 65 65 65 65 65 66 66 66 66
66 66 66 66 66 66 66 66 66 66
67 67 67 67 67 67 67 67 67 67
67 67 67 67 68 68 68 68 68 68
68 68 68 68 68 68 68 68 69 69
69 69 69 69 69 69 69 69 69 69
69 69 70 70 70 70 70 70 70 70
70 70 70 70 70 70 71 71 71 71
71 71 71 71 71 71 71 71 71 71
72 72 72 72 72 72 72 72 72 72
72 72 72 72 73 73 73 73 73 73
73 73 73 73 73 73 73 73 74 74
74 74 74 74 74 74 74 74 74 74
74 74 74 75 75 75 75 75 75 75
75 75 75 75 75 75 75 75 76 76
76 76 76 76 76 76 76 76 76 76
76 76 76 77 77 77 77 77 77 77
77 77 77 77 77 77 77 77 78 78
78 78 78 78 78 78 78 78 78 78
78 78 78 79 79 79 79 79 79 79
79 79 79 79 79 79 79 79 80 80
80 80 80 80 80 80 80 80 80 80
80 80 80 80 81 81 81 81 81 81
81 81 81 81 81 81 81 81 81 81
82 82 82 82 82 82 82 82 82 82
82 82 82 82 82 82 83 83 83 83
83 83 83 83 83 83 83 83 83 83
83 83 84 84 84 84 84 84 84 84
84 84 84 84 84 84 84 84 85 85
85 85 85 85 85 85 85 85 85 85
85 85 85 85 85 86 86 86 86 86
86 86 86 86 86 86 86 86 86 86
86 86 87 87 87 87 87 87 87 87
87 87 87 87 87 87 87 87 87 88
88 88 88 88 88 88 88 88 88 88
88 88 88 88 88 88 89 89 89 89
89 89 89 89 89 89 89 89 89 89
89 89 89 89 90 90 90 90 90 90
90 90 90 90 90 90 90 90 90 90
90 90 91 91 91 91 91 91 91 91
91 91 91 91 91 91 91 91 91 91
92 92 92 92 92 92 92 92 92 92
92 92 92 92 92 92 92 92 93 93
93 93 93 93 93 93 93 93 93 93
93 93 93 93 93 93 93 94 94 94
94 94 94 94 94 94 94 94 94 94
94 94 94 94 94 94 95 95 95 95
95 95 95 95 95 95 95 95 95 95
95 95 95 95 95 96 96 96 96 96
96 96 96 96 96 96 96 96 96 96
96 96 96 96 97 97 97 97 97 97
97 97 97 97 97 97 97 97 97 97
97 97 97 97 98 98 98 98 98 98
98 98 98 98 98 98 98 98 98 98
98 98 98 98 99 99 99 99 99 99
99 99 99 99 99 99 99 99 99 99
99 99 99 99 99 100 100 100 100 100
100 100 100 100 100 100 100 100 100 100
100 100 100 100 100 100 101 101 101 101
101 101 101 101 101 101 101 101 101 101
101 101 101 101 101 101 101 102 102 102
102 102 102 102 102 102 102 102 102 102
102 102 102 102 102 102 102 102 102 103
103 103 103 103 103 103 103 103 103 103
103 103 103 103 103 103 103 103 103 103
103 104 104 104 104 104 104 104 104 104
104 104 104 104 104 104 104 104 104 104
104 104 104 104 105 105 105 105 105 105
105 105 105 105 105 105 105 105 105 105
105 105 105 105 105 105 105 106 106 106
106 106 106 106 106 106 106 106 106 106
106 106 106 106 106 106 106 106 106 106
106 107 107 107 107 107 107 107 107 107
107 107 107 107 107 107 107 107 107 107
107 107 107 107 107 108 108 108 108 108
108 108 108 108 108 108 108 108 108 108
108 108 108 108 108 108 108 108 108 108
109 109 109 109 109 109 109 109 109 109
109 109 109 109 109 109 109 109 109 109
109 109 109 109 109 110 110 110 110 110
110 110 110 110 110 110 110 110 110 110
110 110 110 110 110 110 110 110 110 110
110 111 111 111 111 111 111 111 111 111
111 111 111 111 111 111 111 111 111 111
111 111 111 111 111 111 111 111 112 112
112 112 112 112 112 112 112 112 112 112
112 112 112 112 112 112 112 112 112 112
112 112 112 112 112 113 113 113 113 113
113 113 113 113 113 113 113 113 113 113
113 113 113 113 113 113 113 113 113 113
113 113 113 114 114 114 114 114 114 114
114 114 114 114 114 114 114 114 114 114
114 114 114 114 114 114 114 114 114 114
114 115 115 115 115 115 115 115 115 115
115 115 115 115 115 115 115 115 115 115
115 115 115 115 115 115 115 115 115 115
116 116 116 116 116 116 116 116 116 116
116 116 116 116 116 116 116 116 116 116
116 116 116 116 116 116 116 116 116 117
117 117 117 117 117 117 117 117 117 117
117 117 117 117 117 117 117 117 117 117
117 117 117 117 117 117 117 117 117 118
118 118 118 118 118 118 118 118 118 118
118 118 118 118 118 118 118 118 118 118
118 118 118 118 118 118 118 118 118 119
119 119 119 119 119 119 119 119 119 119
119 119 119 119 119 119 119 119 119 119
119 119 119 119 119 119 119 119 119 119
120 120 120 120 120 120 120 120 120 120
120 120 120 120 120 120 120 120 120 120
120 120 120 120 120 120 120 120 120 120
120 121 121 121 121 121 121 121 121 121
121 121 121 121 121 121 121 121 121 121
121 121 121 121 121 121 121 121 121 121
121 121 121 122 122 122 122 122 122 122
122 122 122 122 122 122 122 122 122 122
122 122 122 122 122 122 122 122 122 122
122 122 122 122 122 123 123 123 123 123
123 123 123 123 123 123 123 123 123 123
123 123 123 123 123 123 123 123 123 123
123 123 123 123 123 123 123 124 124 124
124 124 124 124 124 124 124 124 124 124
124 124 124 124 124 124 124 124 124 124
124 124 124 124 124 124 124 124 124 124
125 125 125 125 125 125 125 125 125 125
125 125 125 125 125 125 125 125 125 125
125 125 125 125 125 125 125 125 125 125
125 125 125 125 126 126 126 126 126 126
126 126 126 126 126 126 126 126 126 126
126 126 126 126 126 126 126 126 126 126
126 126 126 126 126 126 126 126 127 127
127 127 127 127 127 127 127 127 127 127
127 127 127 127 127 127 127 127 127 127
127 127 127 127 127 127 127 127 127 127
127 127 127 128 128 128 128 128 128 128
128 128 128 128 128 128 128 128 128 128
128 128 128 128 128 128 128 128 128 128
128 128 128 128 128 128 128 128 128 129
129 129 129 129 129 129 129 129 129 129
129 129 129 129 129 129 129 129 129 129
129 129 129 129 129 129 129 129 129 129
129 129 129 129 129 130 130 130 130 130
130 130 130 130 130 130 130 130 130 130
130 130 130 130 130 130 130 130 130 130
130 130 130 130 130 130 130 130 130 130
130 130 131 131 131 131 131 131 131 131
131 131 131 131 131 131 131 131 131 131
131 131 131 131 131 131 131 131 131 131
131 131 131 131 131 131 131 131 131 131
132 132 132 132 132 132 132 132 132 132
132 132 132 132 132 132 132 132 132 132
132 132 132 132 132 132 132 132 132 132
132 132 132 132 132 132 132 132 132 133
133 133 133 133 133 133 133 133 133 133
133 133 133 133 133 133 133 133 133 133
133 133 133 133 133 133 133 133 133 133
133 133 133 133 133 133 133 133 133 134
134 134 134 134 134 134 134 134 134 134
134 134 134 134 134 134 134 134 134 134
134 134 134 134 134 134 134 134 134 134
134 134 134 134 134 134 134 134 134 134
134 135 135 135 135 135 135 135 135 135
135 135 135 135 135 135 135 135 135 135
135 135 135 135 135 135 135 135 135 135
135 135 135 135 135 135 135 135 135 135
135 135 135 135 136 136 136 136 136 136
136 136 136 136 136 136 136 136 136 136
136 136 136 136 136 136 136 136 136 136
136 136 136 136 136 136 136 136 136 136
136 136 136 136 136 136 136 136 137 137
137 137 137 137 137 137 137 137 137 137
137 137 137 137 137 137 137 137 137 137
137 137 137 137 137 137 137 137 137 137
137 137 137 137 137 137 137 137 137 137
137 137 137 137 138 138 138 138 138 138
138 138 138 138 138 138 138 138 138 138
138 138 138 138 138 138 138 138 138 138
138 138 138 138 138 138 138 138 138 138
138 138 138 138 138 138 138 138 138 138
138 138 139 139 139 139 139 139 139 139
139 139 139 139 139 139 139 139 139 139
139 139 139 139 139 139 139 139 139 139
139 139 139 139 139 139 139 139 139 139
139 139 139 139 139 139 139 139 139 139
139 139 140 140 140 140 140 140 140 140
140 140 140 140 140 140 140 140 140 140
140 140 140 140 140 140 140 140 140 140
140 140 140 140 140 140 140 140 140 140
140 140 140 140 140 140 140 140 140 140
140 140 140 140 141 141 141 141 141 141
141 141 141 141 141 141 141 141 141 141
141 141 141 141 141 141 141 141 141 141
141 141 141 141 141 141 141 141 141 141
141 141 141 141 141 141 141 141 141 141
141 141 141 141 141 141 141 141 142 142
142 142 142 142 142 142 142 142 142 142
142 142 142 142 142 142 142 142 142 142
142 142 142 142 142 142 142 142 142 142
142 142 142 142 142 142 142 142 142 142
142 142 142 142 142 142 142 142 142 142
142 142 142 142 142 143 143 143 143 143
143 143 143 143 143 143 143 143 143 143
143 143 143 143 143 143 143 143 143 143
143 143 143 143 143 143 143 143 143 143
143 143 143 143 143 143 143 143 143 143
143 143 143 143 143 143 143 143 143 143
143 143 143 143 143 144 144 144 144 144
144 144 144 144 144 144 144 144 144 144
144 144 144 144 144 144 144 144 144 144
144 144 144 144 144 144 144 144 144 144
144 144 144 144 144 144 144 144 144 144
144 144 144 144 144 144 144 144 144 144
144 144 144 144 144 144 144 144 145 145
145 145 145 145 145 145 145 145 145 145
145 145 145 145 145 145 145 145 145 145
145 145 145 145 145 145 145 145 145 145
145 145 145 145 145 145 145 145 145 145
145 145 145 145 145 145 145 145 145 145
145 145 145 145 145 145 145 145 145 145
145 145 145 145 146 146 146 146 146 146
146 146 146 146 146 146 146 146 146 146
146 146 146 146 146 146 146 146 146 146
146 146 146 146 146 146 146 146 146 146
146 146 146 146 146 146 146 146 146 146
146 146 146 146 146 146 146 146 146 146
146 146 146 146 146 146 146 146 146 146
146 146 146 147 147 147 147 147 147 147
147 147 147 147 147 147 147 147 147 147
147 147 147 147 147 147 147 147 147 147
147 147 147 147 147 147 147 147 147 147
147 147 147 147 147 147 147 147 147 147
147 147 147 147 147 147 147 147 147 147
147 147 147 147 147 147 147 147 147 147
147 147 147 148 148 148 148 148 148 148
148 148 148 148 148 148 148 148 148 148
148 148 148 148 148 148 148 148 148 148
148 148 148 148 148 148 148 148 148 148
148 148 148 148 148 148 148 148 148 148
148 148 148 148 148 148 148 148 148 148
148 148 148 148 148 148 148 148 148 148
148 148 148 148 148 149 149 149 149 149
149 149 149 149 149 149 149 149 149 149
149 149 149 149 149 149 149 149 149 149
149 149 149 149 149 149 149 149 149 149
149 149 149 149 149 149 149 149 149 149
149 149 149 149 149 149 149 149 149 149
149 149 149 149 149 149 149 149 149 149
149 149 149 149 149 149 149 149 150 150
150 150 150 150 150 150 150 150 150 150
150 150 150 150 150 150 150 150 150 150
150 150 150 150 150 150 150 150 150 150
150 150 150 150 150 150 150 150 150 150
150 150 150 150 150 150 150 150 150 150
150 150 150 150 150 150 150 150 150 150
150 150 150 150 150 150 150 150 150 150
150 150 150 151 151 151 151 151 151 151
151 151 151 151 151 151 151 151 151 151
151 151 151 151 151 151 151 151 151 151
151 151 151 151 151 151 151 151 151 151
151 151 151 151 151 151 151 151 151 151
151 151 151 151 151 151 151 151 151 151
151 151 151 151 151 151 151 151 151 151
151 151 151 151 151 151 151 151 151 152
152 152 152 152 152 152 152 152 152 152
152 152 152 152 152 152 152 152 152 152
152 152 152 152 152 152 152 152 152 152
152 152 152 152 152 152 152 152 152 152
152 152 152 152 152 152 152 152 152 152
152 152 152 152 152 152 152 152 152 152
152 152 152 152 152 152 152 152 152 152
152 152 152 152 152 152 152 153 153 153
153 153 153 153 153 153 153 153 153 153
153 153 153 153 153 153 153 153 153 153
153 153 153 153 153 153 153 153 153 153
153 153 153 153 153 153 153 153 153 153
153 153 153 153 153 153 153 153 153 153
153 153 153 153 153 153 153 153 153 153
153 153 153 153 153 153 153 153 153 153
153 153 153 153 153 153 153 154 154 154
154 154 154 154 154 154 154 154 154 154
154 154 154 154 154 154 154 154 154 154
154 154 154 154 154 154 154 154 154 154
154 154 154 154 154 154 154 154 154 154
154 154 154 154 154 154 154 154 154 154
154 154 154 154 154 154 154 154 154 154
154 154 154 154 154 154 154 154 154 154
154 154 154 154 154 154 154 154 154 155
155 155 155 155 155 155 155 155 155 155
155 155 155 155 155 155 155 155 155 155
155 155 155 155 155 155 155 155 155 155
155 155 155 155 155 155 155 155 155 155
155 155 155 155 155 155 155 155 155 155
155 155 155 155 155 155 155 155 155 155
155 155 155 155 155 155 155 155 155 155
155 155 155 155 155 155 155 155 155 155
155 155 155 156 156 156 156 156 156 156
156 156 156 156 156 156 156 156 156 156
156 156 156 156 156 156 156 156 156 156
156 156 156 156 156 156 156 156 156 156
156 156 156 156 156 156 156 156 156 156
156 156 156 156 156 156 156 156 156 156
156 156 156 156 156 156 156 156 156 156
156 156 156 156 156 156 156 156 156 156
156 156 156 156 156 156 156 156 156 157
157 157 157 157 157 157 157 157 157 157
157 157 157 157 157 157 157 157 157 157
157 157 157 157 157 157 157 157 157 157
157 157 157 157 157 157 157 157 157 157
157 157 157 157 157 157 157 157 157 157
157 157 157 157 157 157 157 157 157 157
157 157 157 157 157 157 157 157 157 157
157 157 157 157 157 157 157 157 157 157
157 157 157 157 157 157 157 158 158 158
158 158 158 158 158 158 158 158 158 158
158 158 158 158 158 158 158 158 158 158
158 158 158 158 158 158 158 158 158 158
158 158 158 158 158 158 158 158 158 158
158 158 158 158 158 158 158 158 158 158
158 158 158 158 158 158 158 158 158 158
158 158 158 158 158 158 158 158 158 158
158 158 158 158 158 158 158 158 158 158
158 158 158 158 158 158 158 159 159 159
159 159 159 159 159 159 159 159 159 159
159 159 159 159 159 159 159 159 159 159
159 159 159 159 159 159 159 159 159 159
159 159 159 159 159 159 159 159 159 159
159 159 159 159 159 159 159 159 159 159
159 159 159 159 159 159 159 159 159 159
159 159 159 159 159 159 159 159 159 159
159 159 159 159 159 159 159 159 159 159
159 159 159 159 159 159 159 159 159 160
160 160 160 160 160 160 160 160 160 160
160 160 160 160 160 160 160 160 160 160
160 160 160 160 160 160 160 160 160 160
160 160 160 160 160 160 160 160 160 160
160 160 160 160 160 160 160 160 160 160
160 160 160 160 160 160 160 160 160 160
160 160 160 160 160 160 160 160 160 160
160 160 160 160 160 160 160 160 160 160
160 160 160 160 160 160 160 160 160 160
160 160 160 161 161 161 161 161 161 161
161 161 161 161 161 161 161 161 161 161
161 161 161 161 161 161 161 161 161 161
161 161 161 161 161 161 161 161 161 161
161 161 161 161 161 161 161 161 161 161
161 161 161 161 161 161 161 161 161 161
161 161 161 161 161 161 161 161 161 161
161 161 161 161 161 161 161 161 161 161
161 161 161 161 161 161 161 161 161 161
161 161 161 161 161 161 161 161 161 162
162 162 162 162 162 162 162 162 162 162
162 162 162 162 162 162 162 162 162 162
162 162 162 162 162 162 162 162 162 162
162 162 162 162 162 162 162 162 162 162
162 162 162 162 162 162 162 162 162 162
162 162 162 162 162 162 162 162 162 162
162 162 162 162 162 162 162 162 162 162
162 162 162 162 162 162 162 162 162 162
162 162 162 162 162 162 162 162 162 162
162 162 162 162 162 162 162 163 163 163
163 163 163 163 163 163 163 163 163 163
163 163 163 163 163 163 163 163 163 163
163 163 163 163 163 163 163 163 163 163
163 163 163 163 163 163 163 163 163 163
163 163 163 163 163 163 163 163 163 163
163 163 163 163 163 163 163 163 163 163
163 163 163 163 163 163 163 163 163 163
163 163 163 163 163 163 163 163 163 163
163 163 163 163 163 163 163 163 163 163
163 163 163 163 163 163 163 163 164 164
164 164 164 164 164 164 164 164 164 164
164 164 164 164 164 164 164 164 164 164
164 164 164 164 164 164 164 164 164 164
164 164 164 164 164 164 164 164 164 164
164 164 164 164 164 164 164 164 164 164
164 164 164 164 164 164 164 164 164 164
164 164 164 164 164 164 164 164 164 164
164 164 164 164 164 164 164 164 164 164
164 164 164 164 164 164 164 164 164 164
164 164 164 164 164 164 164 164 164 164
164 165 165 165 165 165 165 165 165 165
165 165 165 165 165 165 165 165 165 165
165 165 165 165 165 165 165 165 165 165
165 165 165 165 165 165 165 165 165 165
165 165 165 165 165 165 165 165 165 165
165 165 165 165 165 165 165 165 165 165
165 165 165 165 165 165 165 165 165 165
165 165 165 165 165 165 165 165 165 165
165 165 165 165 165 165 165 165 165 165
165 165 165 165 165 165 165 165 165 165
165 165 165 165 165 165 166 166 166 166
166 166 166 166 166 166 166 166 166 166
166 166 166 166 166 166 166 166 166 166
166 166 166 166 166 166 166 166 166 166
166 166 166 166 166 166 166 166 166 166
166 166 166 166 166 166 166 166 166 166
166 166 166 166 166 166 166 166 166 166
166 166 166 166 166 166 166 166 166 166
166 166 166 166 166 166 166 166 166 166
166 166 166 166 166 166 166 166 166 166
166 166 166 166 166 166 166 166 166 166
166 166 166 166 167 167 167 167 167 167
167 167 167 167 167 167 167 167 167 167
167 167 167 167 167 167 167 167 167 167
167 167 167 167 167 167 167 167 167 167
167 167 167 167 167 167 167 167 167 167
167 167 167 167 167 167 167 167 167 167
167 167 167 167 167 167 167 167 167 167
167 167 167 167 167 167 167 167 167 167
167 167 167 167 167 167 167 167 167 167
167 167 167 167 167 167 167 167 167 167
167 167 167 167 167 167 167 167 167 167
167 167 167 167 168 168 168 168 168 168
168 168 168 168 168 168 168 168 168 168
168 168 168 168 168 168 168 168 168 168
168 168 168 168 168 168 168 168 168 168
168 168 168 168 168 168 168 168 168 168
168 168 168 168 168 168 168 168 168 168
168 168 168 168 168 168 168 168 168 168
168 168 168 168 168 168 168 168 168 168
168 168 168 168 168 168 168 168 168 168
168 168 168 168 168 168 168 168 168 168
168 168 168 168 168 168 168 168 168 168
168 168 168 168 168 168 168 169 169 169
169 169 169 169 169 169 169 169 169 169
169 169 169 169 169 169 169 169 169 169
169 169 169 169 169 169 169 169 169 169
169 169 169 169 169 169 169 169 169 169
169 169 169 169 169 169 169 169 169 169
169 169 169 169 169 169 169 169 169 169
169 169 169 169 169 169 169 169 169 169
169 169 169 169 169 169 169 169 169 169
169 169 169 169 169 169 169 169 169 169
169 169 169 169 169 169 169 169 169 169
169 169 169 169 169 169 169 169 169 169
169 169 170 170 170 170 170 170 170 170
170 170 170 170 170 170 170 170 170 170
170 170 170 170 170 170 170 170 170 170
170 170 170 170 170 170 170 170 170 170
170 170 170 170 170 170 170 170 170 170
170 170 170 170 170 170 170 170 170 170
170 170 170 170 170 170 170 170 170 170
170 170 170 170 170 170 170 170 170 170
170 170 170 170 170 170 170 170 170 170
170 170 170 170 170 170 170 170 170 170
170 170 170 170 170 170 170 170 170 170
170 170 170 170 170 170 170 170 170 170
171 171 171 171 171 171 171 171 171 171
171 171 171 171 171 171 171 171 171 171
171 171 171 171 171 171 171 171 171 171
171 171 171 171 171 171 171 171 171 171
171 171 171 171 171 171 171 171 171 171
171 171 171 171 171 171 171 171 171 171
171 171 171 171 171 171 171 171 171 171
171 171 171 171 171 171 171 171 171 171
171 171 171 171 171 171 171 171 171 171
171 171 171 171 171 171 171 171 171 171
171 171 171 171 171 171 171 171 171 171
171 171 171 171 171 171 171 171 171 171
171 172 172 172 172 172 172 172 172 172
172 172 172 172 172 172 172 172 172 172
172 172 172 172 172 172 172 172 172 172
172 172 172 172 172 172 172 172 172 172
172 172 172 172 172 172 172 172 172 172
172 172 172 172 172 172 172 172 172 172
172 172 172 172 172 172 172 172 172 172
172 172 172 172 172 172 172 172 172 172
172 172 172 172 172 172 172 172 172 172
172 172 172 172 172 172 172 172 172 172
172 172 172 172 172 172 172 172 172 172
172 172 172 172 172 172 172 172 172 172
172 172 172 172 172 173 173 173 173 173
173 173 173 173 173 173 173 173 173 173
173 173 173 173 173 173 173 173 173 173
173 173 173 173 173 173 173 173 173 173
173 173 173 173 173 173 173 173 173 173
173 173 173 173 173 173 173 173 173 173
173 173 173 173 173 173 173 173 173 173
173 173 173 173 173 173 173 173 173 173
173 173 173 173 173 173 173 173 173 173
173 173 173 173 173 173 173 173 173 173
173 173 173 173 173 173 173 173 173 173
173 173 173 173 173 173 173 173 173 173
173 173 173 173 173 173 173 173 173 173
173 173 174 174 174 174 174 174 174 174
174 174 174 174 174 174 174 174 174 174
174 174 174 174 174 174 174 174 174 174
174 174 174 174 174 174 174 174 174 174
174 174 174 174 174 174 174 174 174 174
174 174 174 174 174 174 174 174 174 174
174 174 174 174 174
4.5000000000e-2 1.3500000000e-1 2.2500000000e-1 3.1500000000e-1 4.0500000000e-1 4.9500000000e-1
5.8500000000e-1 6.7500000000e-1 7.6500000000e-1 8.5500000000e-1 9.4500000000e-1 1.0350000000e+0
1.1250000000e+0 1.2150000000e+0 1.3095000000e+0 1.4085000000e+0 1.5075000000e+0 1.6065000000e+0
1.7055000000e+0 1.8045000000e+0 1.9035000000e+0 2.0025000000e+0 2.1015000000e+0 2.2005000000e+0
2.2995000000e+0 2.3985000000e+0 2.4975000000e+0 2.5965000000e+0 2.6955000000e+0 2.7945000000e+0
2.8935000000e+0 2.9925000000e+0 3.0915000000e+0 3.1905000000e+0 3.2895000000e+0 3.3885000000e+0
3.4875000000e+0 3.5865000000e+0 3.6855000000e+0 3.7845000000e+0 3.8880000000e+0 3.9960000000e+0
4.1040000000e+0 4.2120000000e+0 4.3200000000e+0 4.4280000000e+0 4.5360000000e+0 4.6440000000e+0
4.7520000000e+0 4.8600000000e+0 4.9680000000e+0 5.0760000000e+0 5.1840000000e+0 5.2920000000e+0
5.4000000000e+0 5.5125000000e+0 5.6295000000e+0 5.7465000000e+0 5.8635000000e+0 5.9805000000e+0
6.0975000000e+0 6.2145000000e+0 6.3315000000e+0 6.4485000000e+0 6.5655000000e+0 6.6870000000e+0
6.8130000000e+0 6.9390000000e+0 7.0650000000e+0 7.1910000000e+0 7.3170000000e+0 7.4430000000e+0
7.5690000000e+0 7.6995000000e+0 7.8345000000e+0 7.9695000000e+0 8.1045000000e+0 8.2395000000e+0
8.3745000000e+0 8.5140000000e+0 8.6580000000e+0 8.8020000000e+0 8.9460000000e+0 9.0900000000e+0
9.2385000000e+0 9.3915000000e+0 9.5445000000e+0 9.6975000000e+0 9.8550000000e+0 1.0017000000e+1
1.0179000000e+1 1.0341000000e+1 1.0507500000e+1 1.0678500000e+1 1.0849500000e+1 1.1020500000e+1
1.1196000000e+1 1.1376000000e+1 1.1560500000e+1 1.1749500000e+1 1.1938500000e+1 1.2132000000e+1
1.2330000000e+1 1.2532500000e+1 1.2739500000e+1 1.2951000000e+1 1.3167000000e+1 1.3387500000e+1
1.3612500000e+1 1.3842000000e+1 1.4080500000e+1 1.4323500000e+1 1.4571000000e+1 1.4823000000e+1
1.5079500000e+1 1.5340500000e+1 1.5606000000e+1 1.5876000000e+1 1.6150500000e+1 1.6429500000e+1
1.6713000000e+1 1.7001000000e+1 1.7289000000e+1 1.7581500000e+1 1.7883000000e+1 1.8189000000e+1
1.8499500000e+1 1.8819000000e+1 1.9143000000e+1 1.9471500000e+1 1.9809000000e+1 2.0155500000e+1
2.0511000000e+1 2.0880000000e+1 2.1262500000e+1 2.1654000000e+1 2.2059000000e+1 2.2482000000e+1
2.2923000000e+1 2.3382000000e+1 2.3859000000e+1 2.4358500000e+1 2.4885000000e+1 2.5438500000e+1
2.6019000000e+1 2.6626500000e+1 2.7252000000e+1 2.7891000000e+1 2.8543500000e+1 2.9209500000e+1
2.9889000000e+1 3.0582000000e+1 3.1293000000e+1 3.2022000000e+1 3.2769000000e+1 3.3534000000e+1
3.4317000000e+1 3.5118000000e+1 3.5937000000e+1 3.6774000000e+1 3.7629000000e+1 3.8502000000e+1
3.9397500000e+1 4.0315500000e+1 4.1251500000e+1 4.2210000000e+1 4.3191000000e+1 4.4194500000e+1
4.5220500000e+1 4.6269000000e+1 4.7344500000e+1 4.8447000000e+1 4.9576500000e+1 5.0431500000e+1
1 1 1 1 1 1 1 1 1 1
2 2 2 2 2 2 2 2 2 2
3 3 3 3 3 3 3 3 3 3
4 4 4 4 4 4 4 4 4 4
5 5 5 5 5 5 5 5 5 5
6 6 6 6 6 6 6 6 6 6
7 7 7 7 7 7 7 7 7 7
8 8 8 8 8 8 8 8 8 8
9 9 9 9 9 9 9 9 9 9
10 10 10 10 10 10 10 10 10 10
11 11 11 11 11 11 11 11 11 11
12 12 12 12 12 12 12 12 12 12
13 13 13 13 13 13 13 13 13 13
14 14 14 14 14 14 14 14 14 14
15 15 15 15 15 15 15 15 15 15
16 16 16 16 16 16 16 16 16 16
17 17 17 17 17 17 17 17 17 17
18 18 18 18 18 18 18 18 18 18
19 19 19 19 19 19 19 19 19 19
20 20 20 20 20 20 20 20 20 20
21 21 21 21 21 21 21 21 21 21
22 22 22 22 22 22 22 22 22 22
23 23 23 23 23 23 23 23 23 23
24 24 24 24 24 24 24 24 24 24
25 25 25 25 25 25 25 25 25 25
26 26 26 26 26 26 26 26 26 26
27 27 27 27 27 27 27 27 27 27
28 28 28 28 28 28 28 28 28 28
29 29 29 29 29 29 29 29 29 29
30 30 30 30 30 30 30 30 30 30
31 31 31 31 31 31 31 31 31 31
32 32 32 32 32 32 32 32 32 32
33 33 33 33 33 33 33 33 33 33
34 34 34 34 34 34 34 34 34 34
35 35 35 35 35 35 35 35 35 35
36 36 36 36 36 36 36 36 36 36
37 37 37 37 37 37 37 37 37 37
38 38 38 38 38 38 38 38 38 38
39 39 39 39 39 39 39 39 39 39
40 40 40 40 40 40 40 40 40 40
41 41 41 41 41 41 41 41 41 41
42 42 42 42 42 42 42 42 42 42
43 43 43 43 43 43 43 43 43 43
44 44 44 44 44 44 44 44 44 44
45 45 45 45 45 45 45 45 45 45
45 46 46 46 46 46 46 46 46 46
46 46 47 47 47 47 47 47 47 47
47 47 47 48 48 48 48 48 48 48
48 48 48 48 49 49 49 49 49 49
49 49 49 49 49 50 50 50 50 50
50 50 50 50 50 50 51 51 51 51
51 51 51 51 51 51 51 52 52 52
52 52 52 52 52 52 52 52 53 53
53 53 53 53 53 53 53 53 53 54
54 54 54 54 54 54 54 54 54 54
55 55 55 55 55 55 55 55 55 55
55 56 56 56 56 56 56 56 56 56
56 56 57 57 57 57 57 57 57 57
57 57 57 58 58 58 58 58 58 58
58 58 58 58 59 59 59 59 59 59
59 59 59 59 59 60 60 60 60 60
60 60 60 60 60 60 61 61 61 61
61 61 61 61 61 61 61 62 62 62
62 62 62 62 62 62 62 62 63 63
63 63 63 63 63 63 63 63 63 64
64 64 64 64 64 64 64 64 64 64
65 65 65 65 65 65 65 65 65 65
65 66 66 66 66 66 66 66 66 66
66 66 67 67 67 67 67 67 67 67
67 67 67 68 68 68 68 68 68 68
68 68 68 68 69 69 69 69 69 69
69 69 69 69 69 70 70 70 70 70
70 70 70 70 70 70 71 71 71 71
71 71 71 71 71 71 71 72 72 72
72 72 72 72 72 72 72 72 73 73
73 73 73 73 73 73 73 73 73 73
74 74 74 74 74 74 74 74 74 74
74 74 75 75 75 75 75 75 75 75
75 75 75 75 76 76 76 76 76 76
76 76 76 76 76 76 77 77 77 77
77 77 77 77 77 77 77 77 78 78
78 78 78 78 78 78 78 78 78 78
79 79 79 79 79 79 79 79 79 79
79 79 80 80 80 80 80 80 80 80
80 80 80 80 81 81 81 81 81 81
81 81 81 81 81 81 82 82 82 82
82 82 82 82 82 82 82 82 83 83
83 83 83 83 83 83 83 83 83 83
84 84 84 84 84 84 84 84 84 84
84 84 85 85 85 85 85 85 85 85
85 85 85 85 86 86 86 86 86 86
86 86 86 86 86 86 87 87 87 87
87 87 87 87 87 87 87 87 88 88
88 88 88 88 88 88 88 88 88 88
89 89 89 89 89 89 89 89 89 89
89 89 89 90 90 90 90 90 90 90
90 90 90 90 90 90 91 91 91 91
91 91 91 91 91 91 91 91 91 92
92 92 92 92 92 92 92 92 92 92
92 92 93 93 93 93 93 93 93 93
93 93 93 93 93 94 94 94 94 94
94 94 94 94 94 94 94 94 95 95
95 95 95 95 95 95 95 95 95 95
95 96 96 96 96 96 96 96 96 96
96 96 96 96 97 97 97 97 97 97
97 97 97 97 97 97 97 98 98 98
98 98 98 98 98 98 98 98 98 98
99 99 99 99 99 99 99 99 99 99
99 99 99 100 100 100 100 100 100 100
100 100 100 100 100 100 100 101 101 101
101 101 101 101 101 101 101 101 101 101
101 102 102 102 102 102 102 102 102 102
102 102 102 102 102 103 103 103 103 103
103 103 103 103 103 103 103 103 103 104
104 104 104 104 104 104 104 104 104 104
104 104 104 105 105 105 105 105 105 105
105 105 105 105 105 105 105 106 106 106
106 106 106 106 106 106 106 106 106 106
106 107 107 107 107 107 107 107 107 107
107 107 107 107 107 108 108 108 108 108
108 108 108 108 108 108 108 108 108 109
109 109 109 109 109 109 109 109 109 109
109 109 109 109 110 110 110 110 110 110
110 110 110 110 110 110 110 110 110 111
111 111 111 111 111 111 111 111 111 111
111 111 111 111 112 112 112 112 112 112
112 112 112 112 112 112 112 112 112 113
113 113 113 113 113 113 113 113 113 113
113 113 113 113 114 114 114 114 114 114
114 114 114 114 114 114 114 114 114 115
115 115 115 115 115 115 115 115 115 115
115 115 115 115 115 116 116 116 116 116
116 116 116 116 116 116 116 116 116 116
116 117 117 117 117 117 117 117 117 117
117 117 117 117 117 117 117 118 118 118
118 118 118 118 118 118 118 118 118 118
118 118 118 119 119 119 119 119 119 119
119 119 119 119 119 119 119 119 119 120
120 120 120 120 120 120 120 120 120 120
120 120 120 120 120 121 121 121 121 121
121 121 121 121 121 121 121 121 121 121
121 121 122 122 122 122 122 122 122 122
122 122 122 122 122 122 122 122 122 123
123 123 123 123 123 123 123 123 123 123
123 123 123 123 123 123 124 124 124 124
124 124 124 124 124 124 124 124 124 124
124 124 124 125 125 125 125 125 125 125
125 125 125 125 125 125 125 125 125 125
125 126 126 126 126 126 126 126 126 126
126 126 126 126 126 126 126 126 126 127
127 127 127 127 127 127 127 127 127 127
127 127 127 127 127 127 127 128 128 128
128 128 128 128 128 128 128 128 128 128
128 128 128 128 128 129 129 129 129 129
129 129 129 129 129 129 129 129 129 129
129 129 129 130 130 130 130 130 130 130
130 130 130 130 130 130 130 130 130 130
130 130 131 131 131 131 131 131 131 131
131 131 131 131 131 131 131 131 131 131
131 132 132 132 132 132 132 132 132 132
132 132 132 132 132 132 132 132 132 132
133 133 133 133 133 133 133 133 133 133
133 133 133 133 133 133 133 133 133 133
134 134 134 134 134 134 134 134 134 134
134 134 134 134 134 134 134 134 134 134
135 135 135 135 135 135 135 135 135 135
135 135 135 135 135 135 135 135 135 135
[...]
 1.38824150483428486417e-10  1.26020227734560220780e-10  1.14474928809475272062e-10  1.04056578653943757989e-10
 9.46481118867961252679e-11  8.61453876389933520927e-11  7.84557083216334335966e-11  7.14965164760168744383e-11
 6.51942471959274240836e-11  5.92376484331013362012e-11  5.36382132151659117883e-11  4.86029636840473375173e-11
 4.40726187964236150287e-11  3.99947714678837953895e-11  3.63230653689476072889e-11  3.30164692644142472004e-11
 3.00386353493266657498e-11  2.72519962694653692090e-11  2.46601343573691576382e-11  2.23493377419423860077e-11
 2.02912349056798877420e-11  1.84606335752681701130e-11  1.68350380066751993873e-11  1.53424564508818255746e-11
 1.39828936454734871489e-11  1.27946891447295989621e-11  1.17585630826958212783e-11  1.08266691967713853639e-11
 9.99360497854097030279e-12  9.27405769591255727833e-12  8.62935492517085005830e-12  8.04747669323336176432e-12
 7.52924271429644249791e-12  7.03987834081805349035e-12  6.56194459784308000456e-12  6.07716134984285390404e-12
 5.56773320052360791899e-12  5.01827803619860507393e-12  4.41822466497564327714e-12  3.76397912427035651444e-12
 3.04334444483899214219e-12  2.27209886709767285291e-12  1.49800025900197793617e-12  7.60923254169858776374e-13
 9.20892256305311946454e-14 -4.66009883204015815355e-13 -8.56805743527707722938e-13 -1.03894070480043382188e-12
-1.01103002850177181666e-12 -7.93450268948513894072e-13 -4.40608659436859587500e-13 -3.50123616126581455069e-14
 3.39683607299942734618e-13  6.12470499478090913136e-13  7.40950419524548808479e-13  7.33869603281885783835e-13
 6.33944510664307184939e-13  4.91563030669625821559e-13  3.47791634067030295949e-13  2.25076664869274142966e-13
 1.32716415622538293945e-13  7.12290674652885569403e-14  3.43198527841247129896e-14  1.47066216634585423757e-14
 5.74965394753149688393e-15  2.27611608709650827132e-15  1.09144844560929274811e-15  6.59017867800242591514e-16
 4.34200614440297120228e-16  2.96514944187189637028e-16  1.47003395852934963275e-05  1.25154355911655118820e-05
 1.06614132149616156582e-05  9.08732034705705198587e-06  7.75016926671473951625e-06  6.61367480804414324071e-06
 5.64719489104232357013e-06  4.82484064676799390918e-06  4.12472853178463167184e-06  3.52835187576436712768e-06
 3.02005201756950347217e-06  2.58657357935312048568e-06  2.21669003772025648905e-06  1.90088843793704719342e-06
 1.63110378141349331817e-06  1.40049516174444219244e-06  1.20325700939513796554e-06  1.03445983325940775251e-06
 8.89915889887150996491e-07  7.66065661990064868995e-07  6.59882043675033966740e-07  5.68789332050595541186e-07
 4.90594741898038306336e-07  4.23430474032909263729e-07  3.65704684465290305526e-07  3.16059979882374159095e-07
 2.73338242734783250590e-07  2.36550835604050017041e-07  2.04853327553977090562e-07  1.77524055721101999467e-07
 1.53945930151576628632e-07  1.33590981139533147197e-07  1.16007231090794075005e-07  1.00807535534406224243e-07
 8.76600920963902318382e-08  7.62803648168328121481e-08  6.64242089345028680293e-08  5.78820146998473734936e-08
 5.04737165843330033203e-08  4.40445377775960032336e-08  3.84613597342919408869e-08  3.36096233245821351950e-08
 2.93906823390527236435e-08  2.55310520271749756600e-08  2.20325064629337403009e-08  1.90300520504494189439e-08
 1.64511938332644492182e-08  1.42343177769408453867e-08  1.23270180784277066339e-08  1.06846872139682020121e-08
 9.26932664292403967055e-09  8.04854294582302544480e-09  6.99469989904728411635e-09  6.08420176705041166668e-09
 5.29688708440661338714e-09  4.61551553597510755564e-09  4.02533333330930525999e-09  3.51370481996645539305e-09
 3.06979999307459576179e-09  2.68432926618424978660e-09  2.34931817133162134935e-09  2.05791584988372688138e-09
 1.80423214837910867496e-09  1.58319894744345950903e-09  1.39045203415628253918e-09  1.22223040201075984982e-09
 1.07529034541194636666e-09  9.46832122176286688037e-10  8.34437299999080503786e-10  7.36015191610208853285e-10
 6.49757026933089493060e-10  5.74096716191989218619e-10  5.07677231607152449035e-10  4.49321782130422142534e-10
 3.98009079846750124562e-10  3.52852101758978521222e-10  3.13079839674526225206e-10  2.78021606336083267066e-10
 2.47093529897383313706e-10  2.19786923117844455556e-10  1.95658259733589743569e-10  1.74320529618498523821e-10
 1.55435777640878152267e-10  1.38708659446067952794e-10  1.23188075995670612893e-10  1.08887433024814087094e-10
 9.63390731042576104214e-11  8.53178255453829445133e-11  7.56286921660676373251e-11  6.71026507236832512162e-11
 5.95930620938686212029e-11  5.29725916561131850812e-11  4.71305689987347353299e-11  4.19707215722655016313e-11
 3.74092276433020173954e-11  3.33730421163743055092e-11  2.97984557386330949450e-11  2.66298540816026126007e-11
 2.38186476739720119347e-11  2.13223488804267206287e-11  1.90093723534388808227e-11  1.68789692489987788888e-11
 1.50021230293261838045e-11  1.33470666460624117922e-11  1.18862318859522982362e-11  1.05956718645906085158e-11
 9.45456572355262702462e-12  8.44479329159832022146e-12  7.51575451711501052606e-12  6.66574241087820213976e-12
 5.91947607761223343682e-12  5.26389060179345257681e-12  4.68767423638020319661e-12  4.18101492751816894248e-12
 3.71942888566877080432e-12  3.30131537402075710792e-12  2.93702449341220266044e-12  2.61956983306610967062e-12
 2.33369501511829079456e-12  2.07758395280530727461e-12  1.85611858341992901156e-12  1.65830055820015613544e-12
 1.48192141043791732733e-12  1.32906543190385189025e-12  1.19157547674023405680e-12  1.06698384911346020068e-12
 9.52804313434735403419e-13  8.46531692948461173249e-13  7.45897888853996988948e-13  6.48988706075602903084e-13
 5.54504120144534689121e-13  4.59646158742823545984e-13  3.65161444446574758485e-13  2.74913798060065194041e-13
 1.91336623261770565398e-13  1.15925582837507284067e-13  5.15326666882416555431e-14  2.78821814071524398811e-15
-2.66046416987610223952e-14 -3.67649331323100764320e-14 -2.94585791355588297292e-14 -9.09922286221092266007e-15
 1.74129708379298463878e-14  4.28764379783859933120e-14  6.11312704876210228837e-14  6.84832424240749800884e-14
 6.54600226982855025735e-14  5.54198486577320494748e-14  4.24037486482216656460e-14  2.96975702208783102510e-14
 1.90442564141659204086e-14  1.11209517273030529228e-14  5.89581033420386009282e-15  2.78726626848014009711e-15
 1.15274177590644916743e-15  4.18412687669954530000e-16  1.43360004894004315699e-16  5.79151919233438552660e-17
 3.24605783096937562659e-17  2.11335692534307320437e-17  1.44164387670264905349e-17  2.65140798070640348603e-05
 2.22143134575973737719e-05  1.86191457767759914032e-05  1.56120290916385749638e-05  1.30958572968566562131e-05
 1.09896978717934343593e-05  9.22607708089576398599e-06  7.74872404519955584035e-06  6.51069573115205468382e-06
 5.47281797332886817756e-06  4.60238908099270272165e-06  3.87210134849879969480e-06  3.25914367650804600592e-06
 2.74445465033609874467e-06  2.31210067360128819336e-06  1.94875806821020864874e-06  1.64328162649616182384e-06
 1.38634511030776623228e-06  1.17014150965202792728e-06  9.88133212346913088635e-07  8.34843547584111453470e-07
 7.05682896040032619756e-07  5.96803552481056168149e-07  5.04978554300093647331e-07  4.27500485303525683576e-07
 3.62096933638607849155e-07  3.06859838056036987126e-07  2.60186426857434615352e-07  2.20729819814256905750e-07
 1.87357709910632691453e-07  1.59117780451648920543e-07  1.35208757975959675910e-07  1.14956168988972242831e-07
 9.77920287040367086956e-08  8.32378205233283264444e-08  7.08902257041823658864e-08  6.04091550694203940160e-08
 5.15077074974209081123e-08  4.39437417676724388563e-08  3.75127998035313879245e-08  3.20421622961322903053e-08
 2.73858535346620815046e-08  2.34204421921051122834e-08  1.98701106222760864025e-08  1.67243426930362305495e-08
 1.40874581317045502299e-08  1.18755549508926242275e-08  1.00188004300244144349e-08  8.45903591641444392700e-09
 7.14779497911318187814e-09  6.04466269877743502550e-09  5.11591663519436689624e-09  4.33340049548994855592e-09
 3.67359014063719588696e-09  3.11681865128030472995e-09  2.64663300087960721111e-09  2.24925967978951912089e-09
 1.91316056247388411217e-09  1.62866356275122485664e-09  1.38765530265002740724e-09  1.18332523077769452817e-09
 1.00995244947140407638e-09  8.62728014877564333339e-10  7.37606716736300599333e-10  6.31183371236522446955e-10
 5.40589508839321956124e-10  4.63407040679488532372e-10  3.97596067746328180856e-10  3.41434477669021748208e-10
 2.93467372007525844015e-10  2.52464696828102243088e-10  2.17385722851015557537e-10  1.87349248350216498210e-10
 1.61608586307416563303e-10  1.39530553717257351361e-10  1.20577810890566331300e-10  1.04294006639920847534e-10
 9.02912751010689374769e-11  7.82397047423384809000e-11  6.78584624045548771988e-11  5.89083071174619454185e-11
 5.11852717120834290913e-11  4.45153263476951078122e-11  3.87498682040700568142e-11  3.35320633503705865598e-11
 2.88477224475766780932e-11  2.48451435743079111224e-11  2.14214937934379351186e-11  1.84899464780306656834e-11
 1.59771192788624179143e-11  1.38209325671033907894e-11  1.19688177742537516664e-11  1.03762171417442944339e-11
 9.00532637314682463599e-12  7.82403992710943342664e-12  6.80506550587326149538e-12  5.92517993433300920388e-12
 5.16460329477235280640e-12  4.50647205243703400498e-12  3.93639511658776887545e-12  3.42133700632607874830e-12
 2.95913550608790198113e-12  2.56257172713174161795e-12  2.22191054340921294069e-12  1.92891790857663912530e-12
 1.67662145157833732215e-12  1.45911043205170353503e-12  1.27136840083472836087e-12  1.10290271378416447266e-12
 9.52640699499345172633e-13  8.24029683443360963409e-13  7.13808290342871791210e-13  6.19228549509714240645e-13
 5.37971864152636963075e-13  4.65607371596009955827e-13  4.01517359484106124049e-13  3.46886819853916069677e-13
 3.00261963103229497103e-13  2.59117494511209423977e-13  2.22993881040882113970e-13  1.92385250920742379016e-13
 1.65617445065476443143e-13  1.42305186411852974442e-13  1.22645700442634466485e-13  1.05539204155744765751e-13
 9.06748571844409179177e-14  7.77636792667247400390e-14  6.65230499181411662363e-14  5.66989036044101510903e-14
 4.80577748422320104942e-14  4.04047706842278513333e-14  3.34219217159406886427e-14  2.70569662177479685466e-14
 2.14097314676987312784e-14  1.64496663846219247118e-14  1.20984101575098326474e-14  8.36895859828242931158e-15
 5.38765274188504526928e-15  3.27376359329528760587e-15  1.97966434064266499265e-15  1.42199181912772540090e-15
 1.44847017190396170877e-15  1.81842251460069376227e-15  2.27126557235546971162e-15  2.58319059434639287242e-15
 2.61803659977548467745e-15  2.37600619726098281011e-15  1.95094142882595517027e-15  1.46283189554840604703e-15
 1.00939289523383546068e-15  6.39413885309782953903e-16  3.69158864533778196350e-16  1.93360951657757328805e-16
 9.00002214104507142114e-17  3.62865779103510303461e-17  1.25038490276820716503e-17  3.81726226531657553725e-18
 1.28735470944083688019e-18  6.52644493772864791618e-19  4.17508002026065670544e-19  2.84349688736997196850e-19
 3.09402330088703539872e-05  2.56158313186142446521e-05  2.12120765393309148770e-05  1.75690875277881498904e-05
 1.45548581009215462259e-05  1.20603795629140066817e-05  9.99561947498197080897e-06  8.28620595603201786856e-06
 6.87069325824411208889e-06  5.69830652618329663080e-06  4.72708132952088546481e-06  3.92232879488922883820e-06
 3.25536908030156247254e-06  2.70248614775400044468e-06  2.24406503182292626185e-06  1.86387963041757822719e-06
 1.54850466355902716953e-06  1.28683007557987477035e-06  1.06965996781249489073e-06  8.89381295028065420695e-07
 7.39690142685198290385e-07  6.15365540698314163664e-07  5.12082525589563322836e-07  4.26257613800197367723e-07
 3.54921044141989978687e-07  2.95611132890390317443e-07  2.46286900579762547302e-07  2.05255790228965429404e-07
 1.71113870126473893525e-07  1.42696344439514956152e-07  1.19036594452424623860e-07  9.93322691135282388208e-08
 8.29172079952664368042e-08  6.92381887202491207725e-08  5.78356651007168687768e-08  4.83278084360674806277e-08
 4.03972825037706624900e-08  3.37802816533709290255e-08  2.82574427616089291383e-08  2.36463090648419459429e-08
 1.97950794721493363043e-08  1.65774229118203763870e-08  1.38881752529784297908e-08  1.15269681639477351836e-08
 9.47777119236343015594e-09  7.79678112723508128940e-09  6.41720748013399120712e-09  5.28447798179691116588e-09
 4.35398645632020748291e-09  3.58925866239694154531e-09  2.96045805171024966672e-09  2.44316805126227720869e-09
 2.01739936670271963927e-09  1.66678045219689136269e-09  1.37789712372507976579e-09  1.13975365081321782260e-09
 9.43332825075019394241e-10  7.81236698222479832740e-10  6.47393090194864695094e-10  5.36815737935841947497e-10
 4.45408207229511244567e-10  3.69803521284451816176e-10  3.07232949423141318562e-10  2.55418611374699437319e-10
 2.12485539281581938894e-10  1.76889642821385930792e-10  1.47358677078651411551e-10  1.22843845804470672932e-10
 1.02480107076640627304e-10  8.55536024849793249561e-11  7.14749197410453311173e-11  5.97571341828391840785e-11
 4.99977668803076663708e-11  4.18639539727464674909e-11  3.50802500149935781778e-11  2.94185927907426146481e-11
 2.46900425956124110635e-11  2.07379789238104919786e-11  1.74324946811134097718e-11  1.46657748328307932045e-11
 1.23482846853568473212e-11  1.04056243487757570028e-11  8.77593160409728672852e-12  7.40773643693792349410e-12
 6.20610008641544553206e-12  5.16072867186492370013e-12  4.29596682483044288378e-12  3.57991656471809050297e-12
 2.98642300420366751946e-12  2.49402262357304760625e-12  2.08508707123476255205e-12  1.74512564787281575006e-12
 1.46221665810169695726e-12  1.22654348521548627689e-12  1.03001582543826638702e-12  8.65960219923295328956e-13
 7.28867016002982346962e-13  6.14183310913231796575e-13  5.18143391697301942415e-13  4.37629773039364279206e-13
 3.67276128825519285969e-13  3.06296639978186335638e-13  2.55800512022255445926e-13  2.13930530967761243571e-13
 1.79167235327794553973e-13  1.50266063454461071127e-13  1.26206438035042085390e-13  1.06150479054209631088e-13
 8.87790846338241503952e-14  7.38398812926784889924e-14  6.15181388901506172312e-14  5.13391330029248465031e-14
 4.29168975900707221448e-14  3.59371832657658219012e-14  2.99429495627307895586e-14  2.48275208566128528305e-14
 2.06269299614199151693e-14  1.71713178359038849887e-14  1.42321182008578985605e-14  1.17463340146565464054e-14
 9.71769618103007244123e-15  8.00930450911472517293e-15  6.57788909745335193313e-15  5.41757217854422716425e-15
 4.44843018503007702077e-15  3.64232942015814500865e-15  2.97482579782482766658e-15  2.42369229203405123542e-15
 1.96993514801742066179e-15  1.59671809560203800898e-15  1.28994982238427150564e-15  1.03193339611440651704e-15
 8.16143631531938450237e-16  6.40173367758122315360e-16  4.96801836928541108471e-16  3.78261511790167859103e-16
 2.80237501958735175592e-16  2.01876841174088249564e-16  1.43034292112608094729e-16  1.00618058798734564042e-16
 7.20804956900393002214e-17  5.49297636136961201994e-17  4.57746071560307497670e-17  4.09576237632027706908e-17
 3.74194499482506332566e-17  3.32351836747160900370e-17  2.78555491192618204773e-17  2.17428067260635569164e-17
 1.57494166919844688704e-17  1.05955535906808567060e-17  6.57714457095461381530e-18  3.73090562570010613549e-18
 1.92199507467807220263e-18  8.78652370137793698847e-19  3.45854682783989223873e-19  1.14211151830108400151e-19
 3.16522905868292210108e-20  8.82122217595862620205e-21  3.88911923362330044157e-21  2.42018838590046974793e-21
 1.64412198437678325199e-21  1.85132064821222839134e-05  1.52215339747403419711e-05  1.25161074352031568338e-05
 1.02923537971818995166e-05  8.46438057583302864715e-06  6.96163430222920763823e-06  5.72615745283751052751e-06
 4.71033655443225366547e-06  3.87505340440146367713e-06  3.18816716142487892334e-06  2.62326801101326900023e-06
 2.15865376302650319168e-06  1.77648945090466582151e-06  1.46211716781638358055e-06  1.20348924694122485604e-06
 9.90702713023720028297e-07  8.15616887243826804610e-07  6.71539272981237545273e-07  5.52967513211634844178e-07
 4.55377396683590944324e-07  3.75048683374040351948e-07  3.08921992853926963470e-07  2.54481207582713644463e-07
 2.09656835470864728424e-07  1.72746590561568275088e-07  1.42350119388052521610e-07  1.17315349672473823918e-07
 9.66943885081916956870e-08  7.97072679615259552252e-08  6.57121391542711132657e-08  5.41807662217253720623e-08
 4.46783760834267624718e-08  3.68470885676913566746e-08  3.03922896384534943237e-08  2.50714240585493999806e-08
 2.06847771851903845828e-08  1.70678922259588779593e-08  1.40853322772211291890e-08  1.16255482158949830881e-08
 9.59665603819663872336e-09  7.92296218189858736006e-09  6.54210408486431514720e-09  5.40269683340496078566e-09
 4.41558086302720219691e-09  3.57107784732877099493e-09  2.88863916828156791815e-09  2.33706819970027502855e-09
 1.89119032655822920131e-09  1.53068751930890437097e-09  1.23915897927768265182e-09  1.00336390683836103607e-09
 8.12611004680970876044e-10  6.58266218491312644097e-10  5.33355763366376329546e-10  4.32245948911670382057e-10
 3.50384910432055724592e-10  2.84094247836059788453e-10  2.30400904495369572067e-10  1.86901495287189392569e-10
 1.51652804860761577401e-10  1.23083394992438549961e-10  9.99222410081035402208e-11  8.11411077581223146767e-11
 6.59080126340485243284e-11  5.35496364867734261347e-11  4.35209570884821555148e-11  3.53807133356492676801e-11
 2.87715773063483876322e-11  2.34041281161924353059e-11  1.90438963739804353363e-11  1.55008890645665296406e-11
 1.26211184431040864147e-11  1.02797502971986007020e-11  8.37556098047145954157e-12  6.82645237457116579175e-12
 5.56582216274991591913e-12  4.53962572624526739674e-12  3.70399740215329993029e-12  3.02332421729505523609e-12
 2.46868570518866564737e-12  2.01658996491961382584e-12  1.64794949144482013805e-12  1.34725110972945848871e-12
 1.10188307469391599321e-12  8.92664840507642135945e-13  7.16274853294941347256e-13  5.75052294820232343122e-13
 4.61930995484833476287e-13  3.71274306621919902949e-13  2.98584151984048718180e-13  2.40269614172036761292e-13
 1.93462815124182518726e-13  1.55872377502618906442e-13  1.25666757522256836537e-13  1.01381328482417877457e-13
 8.18443542441378822279e-14  6.61179914195418553463e-14  5.34512521490653317322e-14  4.32424888299649006659e-14
 3.50094619152016751493e-14  2.80979252017627381302e-14  2.23548211414891507279e-14  1.78024518420904007492e-14
 1.41909133232116623820e-14  1.13233039893225694077e-14  9.04437998499516428655e-15  7.23165832877038534222e-15
 5.78843592321900144912e-15  4.59613959921075885980e-15  3.62030863515194424610e-15  2.85550547121451204642e-15
 2.25537896758415685986e-15  1.78389527008037305908e-15  1.41301470851179845941e-15  1.11107149963367533482e-15
 8.67331438509972897959e-16  6.78277227345703089544e-16  5.31405616695151905094e-16  4.13571929747910998201e-16
 3.19762844079226758094e-16  2.47789342622694965172e-16  1.90866140032489122265e-16  1.46160323579351377696e-16
 1.12232978091004258811e-16  8.57305274631621143873e-17  6.51564085957672639533e-17  4.92957892207738943415e-17
 3.71355519334782327877e-17  2.78696148286995226114e-17  2.08413337822268988386e-17  1.55375719168646486308e-17
 1.14651616347597621136e-17  8.37742158152316478810e-18  6.10563407802645882256e-18  4.43762105252753151134e-18
 3.19196090481243315180e-18  2.25576802509323638271e-18  1.56594117386847038008e-18  1.07627185313356326366e-18
 7.29807336968012969844e-19  4.88625965113041265414e-19  3.27352009472531842899e-19  2.23234818388521467608e-19
 1.56422990227516393930e-19  1.12470938947669062455e-19  8.21129974453228491741e-20  5.95411432145329887415e-20
 4.18760962743583391695e-20  2.81159376721322270692e-20  1.78647923265854860339e-20  1.05961484910543992138e-20
 5.78515587305376948799e-21  2.88175239670925577082e-21  1.27592576399879608166e-21  4.85131409724112117740e-22
 1.52773219705132513496e-22  3.85448971451660848350e-23  8.66282027165780892270e-24  3.07675938809313302262e-24
 1.81928885249004499828e-24  1.23004926620215546471e-24
