************************************************************************
* This file is part of OpenMolcas.                                     *
*                                                                      *
* OpenMolcas is free software; you can redistribute it and/or modify   *
* it under the terms of the GNU Lesser General Public License, v. 2.1. *
* OpenMolcas is distributed in the hope that it will be useful, but it *
* is provided "as is" and without any express or implied warranties.   *
* For more details see the full text of the license in the file        *
* LICENSE or in <http://www.gnu.org/licenses/>.                        *
************************************************************************
 9 6
 0.999999999999999979E-16 0.999999999999999979E-16 0.999999999999999979E-15
 0.999999999999999979E-15 0.999999999999999999E-14 0.999999999999999999E-14
 0.999999999999999904E-13 0.999999999999999904E-13 0.999999999999999980E-12
0.388000000000000E+020.462100000000000E+020.507100000000000E+02
0.570300000000000E+020.603200000000000E+020.660100000000000E+02
0.686900000000000E+020.740300000000000E+020.762700000000000E+02
0.800000000000000E-020.700000000000000E-020.900000000000000E-02
0.900000000000000E-020.120000000000000E-010.120000000000000E-01
0.170000000000000E-010.160000000000000E-010.230000000000000E-01
 4851 6602 5635
 6337 5027 5501
 4041 4627 3317
 162 196 173
 211 180 210
 176 197 162
 1 1 1
 1 1 1
 1 1 1
 1 1 2
 2 2 2
 2 2 2
 2 2 2
 2 3 3
 3 3 3
 3 3 3
 3 3 3
 4 4 4
 4 4 4
 4 4 4
 4 4 5
 5 5 5
 5 5 5
 5 5 5
 5 6 6
 6 6 6
 6 6 6
 6 6 6
 7 7 7
 7 7 7
 7 7 7
 7 7 7
 8 8 8
 8 8 8
 8 8 8
 8 8 8
 9 9 9
 9 9 9
 9 9 9
 9 9 9
 10 10 10
 10 10 10
 10 10 10
 10 10 10
 11 11 11
 11 11 11
 11 11 11
 11 11 11
 12 12 12
 12 12 12
 12 12 12
 12 12 12
 13 13 13
 13 13 13
 13 13 13
 13 13 13
 14 14 14
 14 14 14
 14 14 14
 14 14 14
 15 15 15
 15 15 15
 15 15 15
 15 15 15
 16 16 16
 16 16 16
 16 16 16
 16 16 16
 17 17 17
 17 17 17
 17 17 17
 17 17 17
 18 18 18
 18 18 18
 18 18 18
 18 18 18
 19 19 19
 19 19 19
 19 19 19
 19 19 19
 19 20 20
 20 20 20
 20 20 20
 20 20 20
 20 20 21
 21 21 21
 21 21 21
 21 21 21
 21 21 21
 22 22 22
 22 22 22
 22 22 22
 22 22 22
 22 23 23
 23 23 23
 23 23 23
 23 23 23
 23 23 24
 24 24 24
 24 24 24
 24 24 24
 24 24 24
 25 25 25
 25 25 25
 25 25 25
 25 25 25
 25 26 26
 26 26 26
 26 26 26
 26 26 26
 26 26 27
 27 27 27
 27 27 27
 27 27 27
 27 27 27
 28 28 28
 28 28 28
 28 28 28
 28 28 28
 28 28 29
 29 29 29
 29 29 29
 29 29 29
 29 29 29
 29 30 30
 30 30 30
 30 30 30
 30 30 30
 30 30 30
 31 31 31
 31 31 31
 31 31 31
 31 31 31
 31 31 32
 32 32 32
 32 32 32
 32 32 32
 32 32 32
 32 33 33
 33 33 33
 33 33 33
 33 33 33
 33 33 33
 34 34 34
 34 34 34
 34 34 34
 34 34 34
 34 34 35
 35 35 35
 35 35 35
 35 35 35
 35 35 35
 35 35 36
 36 36 36
 36 36 36
 36 36 36
 36 36 36
 36 36 37
 37 37 37
 37 37 37
 37 37 37
 37 37 37
 37 37 38
 38 38 38
 38 38 38
 38 38 38
 38 38 38
 38 38 39
 39 39 39
 39 39 39
 39 39 39
 39 39 39
 39 39 40
 40 40 40
 40 40 40
 40 40 40
 40 40 40
 40 40 41
 41 41 41
 41 41 41
 41 41 41
 41 41 41
 41 41 42
 42 42 42
 42 42 42
 42 42 42
 42 42 42
 42 42 43
 43 43 43
 43 43 43
 43 43 43
 43 43 43
 43 43 44
 44 44 44
 44 44 44
 44 44 44
 44 44 44
 44 44 45
 45 45 45
 45 45 45
 45 45 45
 45 45 45
 45 45 46
 46 46 46
 46 46 46
 46 46 46
 46 46 46
 46 46 46
 47 47 47
 47 47 47
 47 47 47
 47 47 47
 47 47 47
 47 48 48
 48 48 48
 48 48 48
 48 48 48
 48 48 48
 48 48 49
 49 49 49
 49 49 49
 49 49 49
 49 49 49
 49 49 49
 50 50 50
 50 50 50
 50 50 50
 50 50 50
 50 50 50
 50 50 51
 51 51 51
 51 51 51
 51 51 51
 51 51 51
 51 51 51
 51 52 52
 52 52 52
 52 52 52
 52 52 52
 52 52 52
 52 52 52
 53 53 53
 53 53 53
 53 53 53
 53 53 53
 53 53 53
 53 53 53
 54 54 54
 54 54 54
 54 54 54
 54 54 54
 54 54 54
 54 54 54
 55 55 55
 55 55 55
 55 55 55
 55 55 55
 55 55 55
 55 55 55
 56 56 56
 56 56 56
 56 56 56
 56 56 56
 56 56 56
 56 56 56
 56 57 57
 57 57 57
 57 57 57
 57 57 57
 57 57 57
 57 57 57
 57 57 58
 58 58 58
 58 58 58
 58 58 58
 58 58 58
 58 58 58
 58 58 58
 59 59 59
 59 59 59
 59 59 59
 59 59 59
 59 59 59
 59 59 59
 59 60 60
 60 60 60
 60 60 60
 60 60 60
 60 60 60
 60 60 60
 60 60 60
 61 61 61
 61 61 61
 61 61 61
 61 61 61
 61 61 61
 61 61 61
 61 61 62
 62 62 62
 62 62 62
 62 62 62
 62 62 62
 62 62 62
 62 62 62
 62 63 63
 63 63 63
 63 63 63
 63 63 63
 63 63 63
 63 63 63
 63 63 63
 63 64 64
 64 64 64
 64 64 64
 64 64 64
 64 64 64
 64 64 64
 64 64 64
 64 65 65
 65 65 65
 65 65 65
 65 65 65
 65 65 65
 65 65 65
 65 65 65
 65 66 66
 66 66 66
 66 66 66
 66 66 66
 66 66 66
 66 66 66
 66 66 66
 66 66 67
 67 67 67
 67 67 67
 67 67 67
 67 67 67
 67 67 67
 67 67 67
 67 67 67
 68 68 68
 68 68 68
 68 68 68
 68 68 68
 68 68 68
 68 68 68
 68 68 68
 68 69 69
 69 69 69
 69 69 69
 69 69 69
 69 69 69
 69 69 69
 69 69 69
 69 69 70
 70 70 70
 70 70 70
 70 70 70
 70 70 70
 70 70 70
 70 70 70
 70 70 70
 71 71 71
 71 71 71
 71 71 71
 71 71 71
 71 71 71
 71 71 71
 71 71 71
 71 72 72
 72 72 72
 72 72 72
 72 72 72
 72 72 72
 72 72 72
 72 72 72
 72 72 73
 73 73 73
 73 73 73
 73 73 73
 73 73 73
 73 73 73
 73 73 73
 73 73 73
 74 74 74
 74 74 74
 74 74 74
 74 74 74
 74 74 74
 74 74 74
 74 74 74
 74 75 75
 75 75 75
 75 75 75
 75 75 75
 75 75 75
 75 75 75
 75 75 75
 75 75 76
 76 76 76
 76 76 76
 76 76 76
 76 76 76
 76 76 76
 76 76 76
 76 76 76
 76 77 77
 77 77 77
 77 77 77
 77 77 77
 77 77 77
 77 77 77
 77 77 77
 77 77 77
 78 78 78
 78 78 78
 78 78 78
 78 78 78
 78 78 78
 78 78 78
 78 78 78
 78 78 79
 79 79 79
 79 79 79
 79 79 79
 79 79 79
 79 79 79
 79 79 79
 79 79 79
 79 80 80
 80 80 80
 80 80 80
 80 80 80
 80 80 80
 80 80 80
 80 80 80
 80 80 80
 81 81 81
 81 81 81
 81 81 81
 81 81 81
 81 81 81
 81 81 81
 81 81 81
 81 81 82
 82 82 82
 82 82 82
 82 82 82
 82 82 82
 82 82 82
 82 82 82
 82 82 82
 82 82 83
 83 83 83
 83 83 83
 83 83 83
 83 83 83
 83 83 83
 83 83 83
 83 83 83
 83 83 84
 84 84 84
 84 84 84
 84 84 84
 84 84 84
 84 84 84
 84 84 84
 84 84 84
 84 84 85
 85 85 85
 85 85 85
 85 85 85
 85 85 85
 85 85 85
 85 85 85
 85 85 85
 85 85 86
 86 86 86
 86 86 86
 86 86 86
 86 86 86
 86 86 86
 86 86 86
 86 86 86
 86 86 86
 87 87 87
 87 87 87
 87 87 87
 87 87 87
 87 87 87
 87 87 87
 87 87 87
 87 87 87
 87 88 88
 88 88 88
 88 88 88
 88 88 88
 88 88 88
 88 88 88
 88 88 88
 88 88 88
 88 88 89
 89 89 89
 89 89 89
 89 89 89
 89 89 89
 89 89 89
 89 89 89
 89 89 89
 89 89 89
 89 90 90
 90 90 90
 90 90 90
 90 90 90
 90 90 90
 90 90 90
 90 90 90
 90 90 90
 90 90 90
 91 91 91
 91 91 91
 91 91 91
 91 91 91
 91 91 91
 91 91 91
 91 91 91
 91 91 91
 91 91 92
 92 92 92
 92 92 92
 92 92 92
 92 92 92
 92 92 92
 92 92 92
 92 92 92
 92 92 92
 92 93 93
 93 93 93
 93 93 93
 93 93 93
 93 93 93
 93 93 93
 93 93 93
 93 93 93
 93 93 93
 93 94 94
 94 94 94
 94 94 94
 94 94 94
 94 94 94
 94 94 94
 94 94 94
 94 94 94
 94 94 94
 94 95 95
 95 95 95
 95 95 95
 95 95 95
 95 95 95
 95 95 95
 95 95 95
 95 95 95
 95 95 95
 95 95 96
 96 96 96
 96 96 96
 96 96 96
 96 96 96
 96 96 96
 96 96 96
 96 96 96
 96 96 96
 96 96 96
 97 97 97
 97 97 97
 97 97 97
 97 97 97
 97 97 97
 97 97 97
 97 97 97
 97 97 97
 97 97 97
 97 98 98
 98 98 98
 98 98 98
 98 98 98
 98 98 98
 98 98 98
 98 98 98
 98 98 98
 98 98 98
 98 98 98
 99 99 99
 99 99 99
 99 99 99
 99 99 99
 99 99 99
 99 99 99
 99 99 99
 99 99 99
 99 99 99
 99 99 100
 100 100 100
 100 100 100
 100 100 100
 100 100 100
 100 100 100
 100 100 100
 100 100 100
 100 100 100
 100 100 100
 100 100 101
 101 101 101
 101 101 101
 101 101 101
 101 101 101
 101 101 101
 101 101 101
 101 101 101
 101 101 101
 101 101 101
 101 101 102
 102 102 102
 102 102 102
 102 102 102
 102 102 102
 102 102 102
 102 102 102
 102 102 102
 102 102 102
 102 102 102
 102 102 103
 103 103 103
 103 103 103
 103 103 103
 103 103 103
 103 103 103
 103 103 103
 103 103 103
 103 103 103
 103 103 103
 103 103 103
 104 104 104
 104 104 104
 104 104 104
 104 104 104
 104 104 104
 104 104 104
 104 104 104
 104 104 104
 104 104 104
 104 104 104
 104 105 105
 105 105 105
 105 105 105
 105 105 105
 105 105 105
 105 105 105
 105 105 105
 105 105 105
 105 105 105
 105 105 105
 105 105 105
 106 106 106
 106 106 106
 106 106 106
 106 106 106
 106 106 106
 106 106 106
 106 106 106
 106 106 106
 106 106 106
 106 106 106
 106 106 107
 107 107 107
 107 107 107
 107 107 107
 107 107 107
 107 107 107
 107 107 107
 107 107 107
 107 107 107
 107 107 107
 107 107 107
 107 107 108
 108 108 108
 108 108 108
 108 108 108
 108 108 108
 108 108 108
 108 108 108
 108 108 108
 108 108 108
 108 108 108
 108 108 108
 108 108 109
 109 109 109
 109 109 109
 109 109 109
 109 109 109
 109 109 109
 109 109 109
 109 109 109
 109 109 109
 109 109 109
 109 109 109
 109 109 109
 110 110 110
 110 110 110
 110 110 110
 110 110 110
 110 110 110
 110 110 110
 110 110 110
 110 110 110
 110 110 110
 110 110 110
 110 110 110
 110 111 111
 111 111 111
 111 111 111
 111 111 111
 111 111 111
 111 111 111
 111 111 111
 111 111 111
 111 111 111
 111 111 111
 111 111 111
 111 111 111
 112 112 112
 112 112 112
 112 112 112
 112 112 112
 112 112 112
 112 112 112
 112 112 112
 112 112 112
 112 112 112
 112 112 112
 112 112 112
 112 112 113
 113 113 113
 113 113 113
 113 113 113
 113 113 113
 113 113 113
 113 113 113
 113 113 113
 113 113 113
 113 113 113
 113 113 113
 113 113 113
 113 113 114
 114 114 114
 114 114 114
 114 114 114
 114 114 114
 114 114 114
 114 114 114
 114 114 114
 114 114 114
 114 114 114
 114 114 114
 114 114 114
 114 114 115
 115 115 115
 115 115 115
 115 115 115
 115 115 115
 115 115 115
 115 115 115
 115 115 115
 115 115 115
 115 115 115
 115 115 115
 115 115 115
 115 115 115
 116 116 116
 116 116 116
 116 116 116
 116 116 116
 116 116 116
 116 116 116
 116 116 116
 116 116 116
 116 116 116
 116 116 116
 116 116 116
 116 116 116
 116 116 117
 117 117 117
 117 117 117
 117 117 117
 117 117 117
 117 117 117
 117 117 117
 117 117 117
 117 117 117
 117 117 117
 117 117 117
 117 117 117
 117 117 117
 117 118 118
 118 118 118
 118 118 118
 118 118 118
 118 118 118
 118 118 118
 118 118 118
 118 118 118
 118 118 118
 118 118 118
 118 118 118
 118 118 118
 118 118 118
 118 119 119
 119 119 119
 119 119 119
 119 119 119
 119 119 119
 119 119 119
 119 119 119
 119 119 119
 119 119 119
 119 119 119
 119 119 119
 119 119 119
 119 119 119
 119 120 120
 120 120 120
 120 120 120
 120 120 120
 120 120 120
 120 120 120
 120 120 120
 120 120 120
 120 120 120
 120 120 120
 120 120 120
 120 120 120
 120 120 120
 120 120 121
 121 121 121
 121 121 121
 121 121 121
 121 121 121
 121 121 121
 121 121 121
 121 121 121
 121 121 121
 121 121 121
 121 121 121
 121 121 121
 121 121 121
 121 121 121
 121 122 122
 122 122 122
 122 122 122
 122 122 122
 122 122 122
 122 122 122
 122 122 122
 122 122 122
 122 122 122
 122 122 122
 122 122 122
 122 122 122
 122 122 122
 122 122 122
 123 123 123
 123 123 123
 123 123 123
 123 123 123
 123 123 123
 123 123 123
 123 123 123
 123 123 123
 123 123 123
 123 123 123
 123 123 123
 123 123 123
 123 123 123
 123 123 123
 124 124 124
 124 124 124
 124 124 124
 124 124 124
 124 124 124
 124 124 124
 124 124 124
 124 124 124
 124 124 124
 124 124 124
 124 124 124
 124 124 124
 124 124 124
 124 124 124
 124 125 125
 125 125 125
 125 125 125
 125 125 125
 125 125 125
 125 125 125
 125 125 125
 125 125 125
 125 125 125
 125 125 125
 125 125 125
 125 125 125
 125 125 125
 125 125 125
 125 125 126
 126 126 126
 126 126 126
 126 126 126
 126 126 126
 126 126 126
 126 126 126
 126 126 126
 126 126 126
 126 126 126
 126 126 126
 126 126 126
 126 126 126
 126 126 126
 126 126 126
 126 127 127
 127 127 127
 127 127 127
 127 127 127
 127 127 127
 127 127 127
 127 127 127
 127 127 127
 127 127 127
 127 127 127
 127 127 127
 127 127 127
 127 127 127
 127 127 127
 127 127 127
 127 128 128
 128 128 128
 128 128 128
 128 128 128
 128 128 128
 128 128 128
 128 128 128
 128 128 128
 128 128 128
 128 128 128
 128 128 128
 128 128 128
 128 128 128
 128 128 128
 128 128 128
 128 129 129
 129 129 129
 129 129 129
 129 129 129
 129 129 129
 129 129 129
 129 129 129
 129 129 129
 129 129 129
 129 129 129
 129 129 129
 129 129 129
 129 129 129
 129 129 129
 129 129 129
 129 129 130
 130 130 130
 130 130 130
 130 130 130
 130 130 130
 130 130 130
 130 130 130
 130 130 130
 130 130 130
 130 130 130
 130 130 130
 130 130 130
 130 130 130
 130 130 130
 130 130 130
 130 130 130
 130 131 131
 131 131 131
 131 131 131
 131 131 131
 131 131 131
 131 131 131
 131 131 131
 131 131 131
 131 131 131
 131 131 131
 131 131 131
 131 131 131
 131 131 131
 131 131 131
 131 131 131
 131 131 131
 131 132 132
 132 132 132
 132 132 132
 132 132 132
 132 132 132
 132 132 132
 132 132 132
 132 132 132
 132 132 132
 132 132 132
 132 132 132
 132 132 132
 132 132 132
 132 132 132
 132 132 132
 132 132 132
 132 133 133
 133 133 133
 133 133 133
 133 133 133
 133 133 133
 133 133 133
 133 133 133
 133 133 133
 133 133 133
 133 133 133
 133 133 133
 133 133 133
 133 133 133
 133 133 133
 133 133 133
 133 133 133
 133 133 134
 134 134 134
 134 134 134
 134 134 134
 134 134 134
 134 134 134
 134 134 134
 134 134 134
 134 134 134
 134 134 134
 134 134 134
 134 134 134
 134 134 134
 134 134 134
 134 134 134
 134 134 134
 134 134 134
 134 135 135
 135 135 135
 135 135 135
 135 135 135
 135 135 135
 135 135 135
 135 135 135
 135 135 135
 135 135 135
 135 135 135
 135 135 135
 135 135 135
 135 135 135
 135 135 135
 135 135 135
 135 135 135
 135 135 135
 135 136 136
 136 136 136
 136 136 136
 136 136 136
 136 136 136
 136 136 136
 136 136 136
 136 136 136
 136 136 136
 136 136 136
 136 136 136
 136 136 136
 136 136 136
 136 136 136
 136 136 136
 136 136 136
 136 136 136
 136 137 137
 137 137 137
 137 137 137
 137 137 137
 137 137 137
 137 137 137
 137 137 137
 137 137 137
 137 137 137
 137 137 137
 137 137 137
 137 137 137
 137 137 137
 137 137 137
 137 137 137
 137 137 137
 137 137 137
 137 137 138
 138 138 138
 138 138 138
 138 138 138
 138 138 138
 138 138 138
 138 138 138
 138 138 138
 138 138 138
 138 138 138
 138 138 138
 138 138 138
 138 138 138
 138 138 138
 138 138 138
 138 138 138
 138 138 138
 138 138 138
 138 139 139
 139 139 139
 139 139 139
 139 139 139
 139 139 139
 139 139 139
 139 139 139
 139 139 139
 139 139 139
 139 139 139
 139 139 139
 139 139 139
 139 139 139
 139 139 139
 139 139 139
 139 139 139
 139 139 139
 139 139 139
 139 140 140
 140 140 140
 140 140 140
 140 140 140
 140 140 140
 140 140 140
 140 140 140
 140 140 140
 140 140 140
 140 140 140
 140 140 140
 140 140 140
 140 140 140
 140 140 140
 140 140 140
 140 140 140
 140 140 140
 140 140 140
 140 140 141
 141 141 141
 141 141 141
 141 141 141
 141 141 141
 141 141 141
 141 141 141
 141 141 141
 141 141 141
 141 141 141
 141 141 141
 141 141 141
 141 141 141
 141 141 141
 141 141 141
 141 141 141
 141 141 141
 141 141 141
 141 141 141
 141 142 142
 142 142 142
 142 142 142
 142 142 142
 142 142 142
 142 142 142
 142 142 142
 142 142 142
 142 142 142
 142 142 142
 142 142 142
 142 142 142
 142 142 142
 142 142 142
 142 142 142
 142 142 142
 142 142 142
 142 142 142
 142 142 142
 142 143 143
 143 143 143
 143 143 143
 143 143 143
 143 143 143
 143 143 143
 143 143 143
 143 143 143
 143 143 143
 143 143 143
 143 143 143
 143 143 143
 143 143 143
 143 143 143
 143 143 143
 143 143 143
 143 143 143
 143 143 143
 143 143 143
 143 143 144
 144 144 144
 144 144 144
 144 144 144
 144 144 144
 144 144 144
 144 144 144
 144 144 144
 144 144 144
 144 144 144
 144 144 144
 144 144 144
 144 144 144
 144 144 144
 144 144 144
 144 144 144
 144 144 144
 144 144 144
 144 144 144
 144 144 144
 145 145 145
 145 145 145
 145 145 145
 145 145 145
 145 145 145
 145 145 145
 145 145 145
 145 145 145
 145 145 145
 145 145 145
 145 145 145
 145 145 145
 145 145 145
 145 145 145
 145 145 145
 145 145 145
 145 145 145
 145 145 145
 145 145 145
 145 145 146
 146 146 146
 146 146 146
 146 146 146
 146 146 146
 146 146 146
 146 146 146
 146 146 146
 146 146 146
 146 146 146
 146 146 146
 146 146 146
 146 146 146
 146 146 146
 146 146 146
 146 146 146
 146 146 146
 146 146 146
 146 146 146
 146 146 146
 146 146 147
 147 147 147
 147 147 147
 147 147 147
 147 147 147
 147 147 147
 147 147 147
 147 147 147
 147 147 147
 147 147 147
 147 147 147
 147 147 147
 147 147 147
 147 147 147
 147 147 147
 147 147 147
 147 147 147
 147 147 147
 147 147 147
 147 147 147
 147 147 147
 148 148 148
 148 148 148
 148 148 148
 148 148 148
 148 148 148
 148 148 148
 148 148 148
 148 148 148
 148 148 148
 148 148 148
 148 148 148
 148 148 148
 148 148 148
 148 148 148
 148 148 148
 148 148 148
 148 148 148
 148 148 148
 148 148 148
 148 148 148
 148 148 149
 149 149 149
 149 149 149
 149 149 149
 149 149 149
 149 149 149
 149 149 149
 149 149 149
 149 149 149
 149 149 149
 149 149 149
 149 149 149
 149 149 149
 149 149 149
 149 149 149
 149 149 149
 149 149 149
 149 149 149
 149 149 149
 149 149 149
 149 149 149
 149 149 150
 150 150 150
 150 150 150
 150 150 150
 150 150 150
 150 150 150
 150 150 150
 150 150 150
 150 150 150
 150 150 150
 150 150 150
 150 150 150
 150 150 150
 150 150 150
 150 150 150
 150 150 150
 150 150 150
 150 150 150
 150 150 150
 150 150 150
 150 150 150
 150 150 150
 151 151 151
 151 151 151
 151 151 151
 151 151 151
 151 151 151
 151 151 151
 151 151 151
 151 151 151
 151 151 151
 151 151 151
 151 151 151
 151 151 151
 151 151 151
 151 151 151
 151 151 151
 151 151 151
 151 151 151
 151 151 151
 151 151 151
 151 151 151
 151 151 151
 151 151 152
 152 152 152
 152 152 152
 152 152 152
 152 152 152
 152 152 152
 152 152 152
 152 152 152
 152 152 152
 152 152 152
 152 152 152
 152 152 152
 152 152 152
 152 152 152
 152 152 152
 152 152 152
 152 152 152
 152 152 152
 152 152 152
 152 152 152
 152 152 152
 152 152 152
 152 152 153
 153 153 153
 153 153 153
 153 153 153
 153 153 153
 153 153 153
 153 153 153
 153 153 153
 153 153 153
 153 153 153
 153 153 153
 153 153 153
 153 153 153
 153 153 153
 153 153 153
 153 153 153
 153 153 153
 153 153 153
 153 153 153
 153 153 153
 153 153 153
 153 153 153
 153 153 153
 154 154 154
 154 154 154
 154 154 154
 154 154 154
 154 154 154
 154 154 154
 154 154 154
 154 154 154
 154 154 154
 154 154 154
 154 154 154
 154 154 154
 154 154 154
 154 154 154
 154 154 154
 154 154 154
 154 154 154
 154 154 154
 154 154 154
 154 154 154
 154 154 154
 154 154 154
 154 154 155
 155 155 155
 155 155 155
 155 155 155
 155 155 155
 155 155 155
 155 155 155
 155 155 155
 155 155 155
 155 155 155
 155 155 155
 155 155 155
 155 155 155
 155 155 155
 155 155 155
 155 155 155
 155 155 155
 155 155 155
 155 155 155
 155 155 155
 155 155 155
 155 155 155
 155 155 155
 155 155 156
 156 156 156
 156 156 156
 156 156 156
 156 156 156
 156 156 156
 156 156 156
 156 156 156
 156 156 156
 156 156 156
 156 156 156
 156 156 156
 156 156 156
 156 156 156
 156 156 156
 156 156 156
 156 156 156
 156 156 156
 156 156 156
 156 156 156
 156 156 156
 156 156 156
 156 156 156
 156 156 156
 156 157 157
 157 157 157
 157 157 157
 157 157 157
 157 157 157
 157 157 157
 157 157 157
 157 157 157
 157 157 157
 157 157 157
 157 157 157
 157 157 157
 157 157 157
 157 157 157
 157 157 157
 157 157 157
 157 157 157
 157 157 157
 157 157 157
 157 157 157
 157 157 157
 157 157 157
 157 157 157
 157 157 157
 157 158 158
 158 158 158
 158 158 158
 158 158 158
 158 158 158
 158 158 158
 158 158 158
 158 158 158
 158 158 158
 158 158 158
 158 158 158
 158 158 158
 158 158 158
 158 158 158
 158 158 158
 158 158 158
 158 158 158
 158 158 158
 158 158 158
 158 158 158
 158 158 158
 158 158 158
 158 158 158
 158 158 158
 158 158 159
 159 159 159
 159 159 159
 159 159 159
 159 159 159
 159 159 159
 159 159 159
 159 159 159
 159 159 159
 159 159 159
 159 159 159
 159 159 159
 159 159 159
 159 159 159
 159 159 159
 159 159 159
 159 159 159
 159 159 159
 159 159 159
 159 159 159
 159 159 159
 159 159 159
 159 159 159
 159 159 159
 159 159 159
 159 160 160
 160 160 160
 160 160 160
 160 160 160
 160 160 160
 160 160 160
 160 160 160
 160 160 160
 160 160 160
 160 160 160
 160 160 160
 160 160 160
 160 160 160
 160 160 160
 160 160 160
 160 160 160
 160 160 160
 160 160 160
 160 160 160
 160 160 160
 160 160 160
 160 160 160
 160 160 160
 160 160 160
 160 160 160
 160 161 161
 161 161 161
 161 161 161
 161 161 161
 161 161 161
 161 161 161
 161 161 161
 161 161 161
 161 161 161
 161 161 161
 161 161 161
 161 161 161
 161 161 161
 161 161 161
 161 161 161
 161 161 161
 161 161 161
 161 161 161
 161 161 161
 161 161 161
 161 161 161
 161 161 161
 161 161 161
 161 161 161
 161 161 161
 161 161 162
 162 162 162
 162 162 162
 162 162 162
 162 162 162
 162 162 162
 162 162 162
0.440000000000000E-010.132000000000000E+000.220000000000000E+00
0.308000000000000E+000.396000000000000E+000.484000000000000E+00
0.576000000000000E+000.672000000000000E+000.768000000000000E+00
0.864000000000000E+000.960000000000000E+000.105600000000000E+01
0.115200000000000E+010.124800000000000E+010.134400000000000E+01
0.144000000000000E+010.153600000000000E+010.163200000000000E+01
0.173200000000000E+010.183600000000000E+010.194000000000000E+01
0.204400000000000E+010.214800000000000E+010.225200000000000E+01
0.235600000000000E+010.246000000000000E+010.256400000000000E+01
0.267200000000000E+010.278400000000000E+010.289600000000000E+01
0.300800000000000E+010.312000000000000E+010.323200000000000E+01
0.334400000000000E+010.346000000000000E+010.358000000000000E+01
0.370000000000000E+010.382000000000000E+010.394000000000000E+01
0.406000000000000E+010.418000000000000E+010.430000000000000E+01
0.442000000000000E+010.454000000000000E+010.466000000000000E+01
0.478400000000000E+010.491200000000000E+010.504000000000000E+01
0.516800000000000E+010.530000000000000E+010.543600000000000E+01
0.557200000000000E+010.571200000000000E+010.585600000000000E+01
0.600000000000000E+010.614800000000000E+010.630000000000000E+01
0.645200000000000E+010.660400000000000E+010.676000000000000E+01
0.692000000000000E+010.708000000000000E+010.724400000000000E+01
0.741200000000000E+010.758000000000000E+010.775200000000000E+01
0.792800000000000E+010.810400000000000E+010.828000000000000E+01
0.845600000000000E+010.863200000000000E+010.880800000000000E+01
0.898400000000000E+010.916000000000000E+010.933600000000000E+01
0.951600000000000E+010.970000000000000E+010.988400000000000E+01
0.100680000000000E+020.102520000000000E+020.104360000000000E+02
0.106240000000000E+020.108160000000000E+020.110080000000000E+02
0.112000000000000E+020.113960000000000E+020.115960000000000E+02
0.117960000000000E+020.120000000000000E+020.122080000000000E+02
0.124160000000000E+020.126240000000000E+020.128360000000000E+02
0.130520000000000E+020.132720000000000E+020.134960000000000E+02
0.137200000000000E+020.139480000000000E+020.141800000000000E+02
0.144160000000000E+020.146560000000000E+020.148960000000000E+02
0.151400000000000E+020.153880000000000E+020.156400000000000E+02
0.158960000000000E+020.161560000000000E+020.164200000000000E+02
0.166880000000000E+020.169600000000000E+020.172360000000000E+02
0.175160000000000E+020.178000000000000E+020.180880000000000E+02
0.183800000000000E+020.186800000000000E+020.189840000000000E+02
0.192920000000000E+020.196040000000000E+020.199200000000000E+02
0.202440000000000E+020.205720000000000E+020.209040000000000E+02
0.212440000000000E+020.215880000000000E+020.219360000000000E+02
0.222920000000000E+020.226520000000000E+020.230160000000000E+02
0.233880000000000E+020.237680000000000E+020.241520000000000E+02
0.245400000000000E+020.249360000000000E+020.253400000000000E+02
0.257480000000000E+020.261600000000000E+020.265800000000000E+02
0.270080000000000E+020.274440000000000E+020.278880000000000E+02
0.283400000000000E+020.288000000000000E+020.292640000000000E+02
0.297320000000000E+020.302080000000000E+020.306920000000000E+02
0.311840000000000E+020.316840000000000E+020.321920000000000E+02
0.327080000000000E+020.332320000000000E+020.337640000000000E+02
0.343040000000000E+020.348520000000000E+020.354120000000000E+02
0.359840000000000E+020.365640000000000E+020.371520000000000E+02
0.377480000000000E+020.383520000000000E+020.389600000000000E+02
 1 1 1
 1 1 1
 1 1 1
 1 1 2
 2 2 2
 2 2 2
 2 2 2
 2 3 3
 3 3 3
 3 3 3
 3 3 3
 4 4 4
 4 4 4
 4 4 4
 4 4 5
 5 5 5
 5 5 5
 5 5 5
 5 6 6
 6 6 6
 6 6 6
 6 6 6
 7 7 7
 7 7 7
 7 7 7
 7 7 8
 8 8 8
 8 8 8
 8 8 8
 8 9 9
 9 9 9
 9 9 9
 9 9 9
 10 10 10
 10 10 10
 10 10 10
 10 10 11
 11 11 11
 11 11 11
 11 11 11
 11 12 12
 12 12 12
 12 12 12
 12 12 12
 13 13 13
 13 13 13
 13 13 13
 13 13 14
 14 14 14
 14 14 14
 14 14 14
 14 15 15
 15 15 15
 15 15 15
 15 15 15
 16 16 16
 16 16 16
 16 16 16
 16 16 16
 17 17 17
 17 17 17
 17 17 17
 17 17 17
 18 18 18
 18 18 18
 18 18 18
 18 18 18
 19 19 19
 19 19 19
 19 19 19
 19 19 19
 20 20 20
 20 20 20
 20 20 20
 20 20 20
 21 21 21
 21 21 21
 21 21 21
 21 21 21
 22 22 22
 22 22 22
 22 22 22
 22 22 22
 23 23 23
 23 23 23
 23 23 23
 23 23 23
 24 24 24
 24 24 24
 24 24 24
 24 24 24
 25 25 25
 25 25 25
 25 25 25
 25 25 25
 26 26 26
 26 26 26
 26 26 26
 26 26 26
 27 27 27
 27 27 27
 27 27 27
 27 27 27
 28 28 28
 28 28 28
 28 28 28
 28 28 28
 29 29 29
 29 29 29
 29 29 29
 29 29 29
 30 30 30
 30 30 30
 30 30 30
 30 30 30
 31 31 31
 31 31 31
 31 31 31
 31 31 31
 32 32 32
 32 32 32
 32 32 32
 32 32 32
 33 33 33
 33 33 33
 33 33 33
 33 33 33
 34 34 34
 34 34 34
 34 34 34
 34 34 34
 35 35 35
 35 35 35
 35 35 35
 35 35 35
 36 36 36
 36 36 36
 36 36 36
 36 36 36
 36 37 37
 37 37 37
 37 37 37
 37 37 37
 37 37 38
 38 38 38
 38 38 38
 38 38 38
 38 38 38
 39 39 39
 39 39 39
 39 39 39
 39 39 39
 39 40 40
 40 40 40
 40 40 40
 40 40 40
 40 40 41
 41 41 41
 41 41 41
 41 41 41
 41 41 41
 42 42 42
 42 42 42
 42 42 42
 42 42 42
 42 43 43
 43 43 43
 43 43 43
 43 43 43
 43 43 44
 44 44 44
 44 44 44
 44 44 44
 44 44 44
 45 45 45
 45 45 45
 45 45 45
 45 45 45
 45 46 46
 46 46 46
 46 46 46
 46 46 46
 46 46 47
 47 47 47
 47 47 47
 47 47 47
 47 47 47
 48 48 48
 48 48 48
 48 48 48
 48 48 48
 48 49 49
 49 49 49
 49 49 49
 49 49 49
 49 49 49
 50 50 50
 50 50 50
 50 50 50
 50 50 50
 50 50 51
 51 51 51
 51 51 51
 51 51 51
 51 51 51
 51 52 52
 52 52 52
 52 52 52
 52 52 52
 52 52 52
 53 53 53
 53 53 53
 53 53 53
 53 53 53
 53 53 54
 54 54 54
 54 54 54
 54 54 54
 54 54 54
 54 55 55
 55 55 55
 55 55 55
 55 55 55
 55 55 55
 56 56 56
 56 56 56
 56 56 56
 56 56 56
 56 56 57
 57 57 57
 57 57 57
 57 57 57
 57 57 57
 57 58 58
 58 58 58
 58 58 58
 58 58 58
 58 58 58
 59 59 59
 59 59 59
 59 59 59
 59 59 59
 59 59 59
 60 60 60
 60 60 60
 60 60 60
 60 60 60
 60 60 60
 61 61 61
 61 61 61
 61 61 61
 61 61 61
 61 61 61
 62 62 62
 62 62 62
 62 62 62
 62 62 62
 62 62 62
 63 63 63
 63 63 63
 63 63 63
 63 63 63
 63 63 63
 64 64 64
 64 64 64
 64 64 64
 64 64 64
 64 64 64
 65 65 65
 65 65 65
 65 65 65
 65 65 65
 65 65 65
 66 66 66
 66 66 66
 66 66 66
 66 66 66
 66 66 66
 67 67 67
 67 67 67
 67 67 67
 67 67 67
 67 67 67
 67 68 68
 68 68 68
 68 68 68
 68 68 68
 68 68 68
 68 68 69
 69 69 69
 69 69 69
 69 69 69
 69 69 69
 69 69 69
 70 70 70
 70 70 70
 70 70 70
 70 70 70
 70 70 70
 70 71 71
 71 71 71
 71 71 71
 71 71 71
 71 71 71
 71 71 72
 72 72 72
 72 72 72
 72 72 72
 72 72 72
 72 72 72
 73 73 73
 73 73 73
 73 73 73
 73 73 73
 73 73 73
 73 74 74
 74 74 74
 74 74 74
 74 74 74
 74 74 74
 74 74 74
 75 75 75
 75 75 75
 75 75 75
 75 75 75
 75 75 75
 75 75 76
 76 76 76
 76 76 76
 76 76 76
 76 76 76
 76 76 76
 76 77 77
 77 77 77
 77 77 77
 77 77 77
 77 77 77
 77 77 77
 78 78 78
 78 78 78
 78 78 78
 78 78 78
 78 78 78
 78 78 79
 79 79 79
 79 79 79
 79 79 79
 79 79 79
 79 79 79
 79 79 80
 80 80 80
 80 80 80
 80 80 80
 80 80 80
 80 80 80
 80 80 81
 81 81 81
 81 81 81
 81 81 81
 81 81 81
 81 81 81
 81 81 82
 82 82 82
 82 82 82
 82 82 82
 82 82 82
 82 82 82
 82 82 83
 83 83 83
 83 83 83
 83 83 83
 83 83 83
 83 83 83
 83 83 84
 84 84 84
 84 84 84
 84 84 84
 84 84 84
 84 84 84
 84 84 84
 85 85 85
 85 85 85
 85 85 85
 85 85 85
 85 85 85
 85 85 85
 85 86 86
 86 86 86
 86 86 86
 86 86 86
 86 86 86
 86 86 86
 86 86 87
 87 87 87
 87 87 87
 87 87 87
 87 87 87
 87 87 87
 87 87 87
 88 88 88
 88 88 88
 88 88 88
 88 88 88
 88 88 88
 88 88 88
 88 88 89
 89 89 89
 89 89 89
 89 89 89
 89 89 89
 89 89 89
 89 89 89
 89 90 90
 90 90 90
 90 90 90
 90 90 90
 90 90 90
 90 90 90
 90 90 90
 91 91 91
 91 91 91
 91 91 91
 91 91 91
 91 91 91
 91 91 91
 91 91 91
 92 92 92
 92 92 92
 92 92 92
 92 92 92
 92 92 92
 92 92 92
 92 92 92
 93 93 93
 93 93 93
 93 93 93
 93 93 93
 93 93 93
 93 93 93
 93 93 93
 94 94 94
 94 94 94
 94 94 94
 94 94 94
 94 94 94
 94 94 94
 94 94 94
 95 95 95
 95 95 95
 95 95 95
 95 95 95
 95 95 95
 95 95 95
 95 95 95
 95 96 96
 96 96 96
 96 96 96
 96 96 96
 96 96 96
 96 96 96
 96 96 96
 96 96 97
 97 97 97
 97 97 97
 97 97 97
 97 97 97
 97 97 97
 97 97 97
 97 97 97
 98 98 98
 98 98 98
 98 98 98
 98 98 98
 98 98 98
 98 98 98
 98 98 98
 98 98 99
 99 99 99
 99 99 99
 99 99 99
 99 99 99
 99 99 99
 99 99 99
 99 99 99
 99 100 100
 100 100 100
 100 100 100
 100 100 100
 100 100 100
 100 100 100
 100 100 100
 100 100 100
 101 101 101
 101 101 101
 101 101 101
 101 101 101
 101 101 101
 101 101 101
 101 101 101
 101 101 101
 102 102 102
 102 102 102
 102 102 102
 102 102 102
 102 102 102
 102 102 102
 102 102 102
 102 102 102
 103 103 103
 103 103 103
 103 103 103
 103 103 103
 103 103 103
 103 103 103
 103 103 103
 103 103 103
 104 104 104
 104 104 104
 104 104 104
 104 104 104
 104 104 104
 104 104 104
 104 104 104
 104 104 104
 105 105 105
 105 105 105
 105 105 105
 105 105 105
 105 105 105
 105 105 105
 105 105 105
 105 105 105
 105 106 106
 106 106 106
 106 106 106
 106 106 106
 106 106 106
 106 106 106
 106 106 106
 106 106 106
 106 106 107
 107 107 107
 107 107 107
 107 107 107
 107 107 107
 107 107 107
 107 107 107
 107 107 107
 107 107 107
 108 108 108
 108 108 108
 108 108 108
 108 108 108
 108 108 108
 108 108 108
 108 108 108
 108 108 108
 108 109 109
 109 109 109
 109 109 109
 109 109 109
 109 109 109
 109 109 109
 109 109 109
 109 109 109
 109 109 109
 110 110 110
 110 110 110
 110 110 110
 110 110 110
 110 110 110
 110 110 110
 110 110 110
 110 110 110
 110 110 111
 111 111 111
 111 111 111
 111 111 111
 111 111 111
 111 111 111
 111 111 111
 111 111 111
 111 111 111
 111 112 112
 112 112 112
 112 112 112
 112 112 112
 112 112 112
 112 112 112
 112 112 112
 112 112 112
 112 112 112
 112 113 113
 113 113 113
 113 113 113
 113 113 113
 113 113 113
 113 113 113
 113 113 113
 113 113 113
 113 113 113
 113 114 114
 114 114 114
 114 114 114
 114 114 114
 114 114 114
 114 114 114
 114 114 114
 114 114 114
 114 114 114
 114 115 115
 115 115 115
 115 115 115
 115 115 115
 115 115 115
 115 115 115
 115 115 115
 115 115 115
 115 115 115
 115 116 116
 116 116 116
 116 116 116
 116 116 116
 116 116 116
 116 116 116
 116 116 116
 116 116 116
 116 116 116
 116 116 117
 117 117 117
 117 117 117
 117 117 117
 117 117 117
 117 117 117
 117 117 117
 117 117 117
 117 117 117
 117 117 117
 118 118 118
 118 118 118
 118 118 118
 118 118 118
 118 118 118
 118 118 118
 118 118 118
 118 118 118
 118 118 118
 118 118 119
 119 119 119
 119 119 119
 119 119 119
 119 119 119
 119 119 119
 119 119 119
 119 119 119
 119 119 119
 119 119 119
 119 120 120
 120 120 120
 120 120 120
 120 120 120
 120 120 120
 120 120 120
 120 120 120
 120 120 120
 120 120 120
 120 120 120
 121 121 121
 121 121 121
 121 121 121
 121 121 121
 121 121 121
 121 121 121
 121 121 121
 121 121 121
 121 121 121
 121 121 121
 122 122 122
 122 122 122
 122 122 122
 122 122 122
 122 122 122
 122 122 122
 122 122 122
 122 122 122
 122 122 122
 122 122 122
 123 123 123
 123 123 123
 123 123 123
 123 123 123
 123 123 123
 123 123 123
 123 123 123
 123 123 123
 123 123 123
 123 123 123
 123 124 124
 124 124 124
 124 124 124
 124 124 124
 124 124 124
 124 124 124
 124 124 124
 124 124 124
 124 124 124
 124 124 124
 124 124 125
 125 125 125
 125 125 125
 125 125 125
 125 125 125
 125 125 125
 125 125 125
 125 125 125
 125 125 125
 125 125 125
 125 125 125
 125 126 126
 126 126 126
 126 126 126
 126 126 126
 126 126 126
 126 126 126
 126 126 126
 126 126 126
 126 126 126
 126 126 126
 126 126 126
 127 127 127
 127 127 127
 127 127 127
 127 127 127
 127 127 127
 127 127 127
 127 127 127
 127 127 127
 127 127 127
 127 127 127
 127 127 127
 128 128 128
 128 128 128
 128 128 128
 128 128 128
 128 128 128
 128 128 128
 128 128 128
 128 128 128
 128 128 128
 128 128 128
 128 128 128
 128 129 129
 129 129 129
 129 129 129
 129 129 129
 129 129 129
 129 129 129
 129 129 129
 129 129 129
 129 129 129
 129 129 129
 129 129 129
 129 129 130
 130 130 130
 130 130 130
 130 130 130
 130 130 130
 130 130 130
 130 130 130
 130 130 130
 130 130 130
 130 130 130
 130 130 130
 130 130 130
 130 131 131
 131 131 131
 131 131 131
 131 131 131
 131 131 131
 131 131 131
 131 131 131
 131 131 131
 131 131 131
 131 131 131
 131 131 131
 131 131 131
 131 132 132
 132 132 132
 132 132 132
 132 132 132
 132 132 132
 132 132 132
 132 132 132
 132 132 132
 132 132 132
 132 132 132
 132 132 132
 132 132 132
 132 132 133
 133 133 133
 133 133 133
 133 133 133
 133 133 133
 133 133 133
 133 133 133
 133 133 133
 133 133 133
 133 133 133
 133 133 133
 133 133 133
 133 133 133
 134 134 134
 134 134 134
 134 134 134
 134 134 134
 134 134 134
 134 134 134
 134 134 134
 134 134 134
 134 134 134
 134 134 134
 134 134 134
 134 134 134
 134 134 135
 135 135 135
 135 135 135
 135 135 135
 135 135 135
 135 135 135
 135 135 135
 135 135 135
 135 135 135
 135 135 135
 135 135 135
 135 135 135
 135 135 135
 135 135 136
 136 136 136
 136 136 136
 136 136 136
 136 136 136
 136 136 136
 136 136 136
 136 136 136
 136 136 136
 136 136 136
 136 136 136
 136 136 136
 136 136 136
 136 136 136
 137 137 137
 137 137 137
 137 137 137
 137 137 137
 137 137 137
 137 137 137
 137 137 137
 137 137 137
 137 137 137
 137 137 137
 137 137 137
 137 137 137
 137 137 137
 137 137 138
 138 138 138
 138 138 138
 138 138 138
 138 138 138
 138 138 138
 138 138 138
 138 138 138
 138 138 138
 138 138 138
 138 138 138
 138 138 138
 138 138 138
 138 138 138
 138 138 139
 139 139 139
 139 139 139
 139 139 139
 139 139 139
 139 139 139
 139 139 139
 139 139 139
 139 139 139
 139 139 139
 139 139 139
 139 139 139
 139 139 139
 139 139 139
 139 139 139
 139 140 140
 140 140 140
 140 140 140
 140 140 140
 140 140 140
 140 140 140
 140 140 140
 140 140 140
 140 140 140
 140 140 140
 140 140 140
 140 140 140
 140 140 140
 140 140 140
 140 140 140
 140 141 141
 141 141 141
 141 141 141
 141 141 141
 141 141 141
 141 141 141
 141 141 141
 141 141 141
 141 141 141
 141 141 141
 141 141 141
 141 141 141
 141 141 141
 141 141 141
 141 141 141
 141 141 142
 142 142 142
 142 142 142
 142 142 142
 142 142 142
 142 142 142
 142 142 142
 142 142 142
 142 142 142
 142 142 142
 142 142 142
 142 142 142
 142 142 142
 142 142 142
 142 142 142
 142 142 142
 142 143 143
 143 143 143
 143 143 143
 143 143 143
 143 143 143
 143 143 143
 143 143 143
 143 143 143
 143 143 143
 143 143 143
 143 143 143
 143 143 143
 143 143 143
 143 143 143
 143 143 143
 143 143 143
 144 144 144
 144 144 144
 144 144 144
 144 144 144
 144 144 144
 144 144 144
 144 144 144
 144 144 144
 144 144 144
 144 144 144
 144 144 144
 144 144 144
 144 144 144
 144 144 144
 144 144 144
 144 144 144
 145 145 145
 145 145 145
 145 145 145
 145 145 145
 145 145 145
 145 145 145
 145 145 145
 145 145 145
 145 145 145
 145 145 145
 145 145 145
 145 145 145
 145 145 145
 145 145 145
 145 145 145
 145 145 145
 146 146 146
 146 146 146
 146 146 146
 146 146 146
 146 146 146
 146 146 146
 146 146 146
 146 146 146
 146 146 146
 146 146 146
 146 146 146
 146 146 146
 146 146 146
 146 146 146
 146 146 146
 146 146 146
 146 147 147
 147 147 147
 147 147 147
 147 147 147
 147 147 147
 147 147 147
 147 147 147
 147 147 147
 147 147 147
 147 147 147
 147 147 147
 147 147 147
 147 147 147
 147 147 147
 147 147 147
 147 147 147
 147 147 148
 148 148 148
 148 148 148
 148 148 148
 148 148 148
 148 148 148
 148 148 148
 148 148 148
 148 148 148
 148 148 148
 148 148 148
 148 148 148
 148 148 148
 148 148 148
 148 148 148
 148 148 148
 148 148 148
 148 149 149
 149 149 149
 149 149 149
 149 149 149
 149 149 149
 149 149 149
 149 149 149
 149 149 149
 149 149 149
 149 149 149
 149 149 149
 149 149 149
 149 149 149
 149 149 149
 149 149 149
 149 149 149
 149 149 149
 149 150 150
 150 150 150
 150 150 150
 150 150 150
 150 150 150
 150 150 150
 150 150 150
 150 150 150
 150 150 150
 150 150 150
 150 150 150
 150 150 150
 150 150 150
 150 150 150
 150 150 150
 150 150 150
 150 150 150
 150 151 151
 151 151 151
 151 151 151
 151 151 151
 151 151 151
 151 151 151
 151 151 151
 151 151 151
 151 151 151
 151 151 151
 151 151 151
 151 151 151
 151 151 151
 151 151 151
 151 151 151
 151 151 151
 151 151 151
 151 151 152
 152 152 152
 152 152 152
 152 152 152
 152 152 152
 152 152 152
 152 152 152
 152 152 152
 152 152 152
 152 152 152
 152 152 152
 152 152 152
 152 152 152
 152 152 152
 152 152 152
 152 152 152
 152 152 152
 152 152 152
 152 153 153
 153 153 153
 153 153 153
 153 153 153
 153 153 153
 153 153 153
 153 153 153
 153 153 153
 153 153 153
 153 153 153
 153 153 153
 153 153 153
 153 153 153
 153 153 153
 153 153 153
 153 153 153
 153 153 153
 153 153 153
 153 154 154
 154 154 154
 154 154 154
 154 154 154
 154 154 154
 154 154 154
 154 154 154
 154 154 154
 154 154 154
 154 154 154
 154 154 154
 154 154 154
 154 154 154
 154 154 154
 154 154 154
 154 154 154
 154 154 154
 154 154 154
 154 154 155
 155 155 155
 155 155 155
 155 155 155
 155 155 155
 155 155 155
 155 155 155
 155 155 155
 155 155 155
 155 155 155
 155 155 155
 155 155 155
 155 155 155
 155 155 155
 155 155 155
 155 155 155
 155 155 155
 155 155 155
 155 155 155
 156 156 156
 156 156 156
 156 156 156
 156 156 156
 156 156 156
 156 156 156
 156 156 156
 156 156 156
 156 156 156
 156 156 156
 156 156 156
 156 156 156
 156 156 156
 156 156 156
 156 156 156
 156 156 156
 156 156 156
 156 156 156
 156 156 157
 157 157 157
 157 157 157
 157 157 157
 157 157 157
 157 157 157
 157 157 157
 157 157 157
 157 157 157
 157 157 157
 157 157 157
 157 157 157
 157 157 157
 157 157 157
 157 157 157
 157 157 157
 157 157 157
 157 157 157
 157 157 157
 157 157 158
 158 158 158
 158 158 158
 158 158 158
 158 158 158
 158 158 158
 158 158 158
 158 158 158
 158 158 158
 158 158 158
 158 158 158
 158 158 158
 158 158 158
 158 158 158
 158 158 158
 158 158 158
 158 158 158
 158 158 158
 158 158 158
 158 158 158
 159 159 159
 159 159 159
 159 159 159
 159 159 159
 159 159 159
 159 159 159
 159 159 159
 159 159 159
 159 159 159
 159 159 159
 159 159 159
 159 159 159
 159 159 159
 159 159 159
 159 159 159
 159 159 159
 159 159 159
 159 159 159
 159 159 159
 159 159 160
 160 160 160
 160 160 160
 160 160 160
 160 160 160
 160 160 160
 160 160 160
 160 160 160
 160 160 160
 160 160 160
 160 160 160
 160 160 160
 160 160 160
 160 160 160
 160 160 160
 160 160 160
 160 160 160
 160 160 160
 160 160 160
 160 160 160
 160 160 161
 161 161 161
 161 161 161
 161 161 161
 161 161 161
 161 161 161
 161 161 161
 161 161 161
 161 161 161
 161 161 161
 161 161 161
 161 161 161
 161 161 161
 161 161 161
 161 161 161
 161 161 161
 161 161 161
 161 161 161
 161 161 161
 161 161 161
 161 161 161
 162 162 162
 162 162 162
 162 162 162
 162 162 162
 162 162 162
 162 162 162
 162 162 162
 162 162 162
 162 162 162
 162 162 162
 162 162 162
 162 162 162
 162 162 162
 162 162 162
 162 162 162
 162 162 162
 162 162 162
 162 162 162
 162 162 162
 162 162 162
 162 162 163
 163 163 163
 163 163 163
 163 163 163
 163 163 163
 163 163 163
 163 163 163
 163 163 163
 163 163 163
 163 163 163
 163 163 163
 163 163 163
 163 163 163
 163 163 163
 163 163 163
 163 163 163
 163 163 163
 163 163 163
 163 163 163
 163 163 163
 163 163 163
 163 163 164
 164 164 164
 164 164 164
 164 164 164
 164 164 164
 164 164 164
 164 164 164
 164 164 164
 164 164 164
 164 164 164
 164 164 164
 164 164 164
 164 164 164
 164 164 164
 164 164 164
 164 164 164
 164 164 164
 164 164 164
 164 164 164
 164 164 164
 164 164 164
 164 164 164
 165 165 165
 165 165 165
 165 165 165
 165 165 165
 165 165 165
 165 165 165
 165 165 165
 165 165 165
 165 165 165
 165 165 165
 165 165 165
 165 165 165
 165 165 165
 165 165 165
 165 165 165
 165 165 165
 165 165 165
 165 165 165
 165 165 165
 165 165 165
 165 165 165
 165 165 166
 166 166 166
 166 166 166
 166 166 166
 166 166 166
 166 166 166
 166 166 166
 166 166 166
 166 166 166
 166 166 166
 166 166 166
 166 166 166
 166 166 166
 166 166 166
 166 166 166
 166 166 166
 166 166 166
 166 166 166
 166 166 166
 166 166 166
 166 166 166
 166 166 166
 166 166 167
 167 167 167
 167 167 167
 167 167 167
 167 167 167
 167 167 167
 167 167 167
 167 167 167
 167 167 167
 167 167 167
 167 167 167
 167 167 167
 167 167 167
 167 167 167
 167 167 167
 167 167 167
 167 167 167
 167 167 167
 167 167 167
 167 167 167
 167 167 167
 167 167 167
 167 167 167
 168 168 168
 168 168 168
 168 168 168
 168 168 168
 168 168 168
 168 168 168
 168 168 168
 168 168 168
 168 168 168
 168 168 168
 168 168 168
 168 168 168
 168 168 168
 168 168 168
 168 168 168
 168 168 168
 168 168 168
 168 168 168
 168 168 168
 168 168 168
 168 168 168
 168 168 168
 168 168 169
 169 169 169
 169 169 169
 169 169 169
 169 169 169
 169 169 169
 169 169 169
 169 169 169
 169 169 169
 169 169 169
 169 169 169
 169 169 169
 169 169 169
 169 169 169
 169 169 169
 169 169 169
 169 169 169
 169 169 169
 169 169 169
 169 169 169
 169 169 169
 169 169 169
 169 169 169
 169 169 170
 170 170 170
 170 170 170
 170 170 170
 170 170 170
 170 170 170
 170 170 170
 170 170 170
 170 170 170
 170 170 170
 170 170 170
 170 170 170
 170 170 170
 170 170 170
 170 170 170
 170 170 170
 170 170 170
 170 170 170
 170 170 170
 170 170 170
 170 170 170
 170 170 170
 170 170 170
 170 170 170
 171 171 171
 171 171 171
 171 171 171
 171 171 171
 171 171 171
 171 171 171
 171 171 171
 171 171 171
 171 171 171
 171 171 171
 171 171 171
 171 171 171
 171 171 171
 171 171 171
 171 171 171
 171 171 171
 171 171 171
 171 171 171
 171 171 171
 171 171 171
 171 171 171
 171 171 171
 171 171 171
 171 171 172
 172 172 172
 172 172 172
 172 172 172
 172 172 172
 172 172 172
 172 172 172
 172 172 172
 172 172 172
 172 172 172
 172 172 172
 172 172 172
 172 172 172
 172 172 172
 172 172 172
 172 172 172
 172 172 172
 172 172 172
 172 172 172
 172 172 172
 172 172 172
 172 172 172
 172 172 172
 172 172 172
 172 172 173
 173 173 173
 173 173 173
 173 173 173
 173 173 173
 173 173 173
 173 173 173
 173 173 173
 173 173 173
 173 173 173
 173 173 173
 173 173 173
 173 173 173
 173 173 173
 173 173 173
 173 173 173
 173 173 173
 173 173 173
 173 173 173
 173 173 173
 173 173 173
 173 173 173
 173 173 173
 173 173 173
 173 173 173
 174 174 174
 174 174 174
 174 174 174
 174 174 174
 174 174 174
 174 174 174
 174 174 174
 174 174 174
 174 174 174
 174 174 174
 174 174 174
 174 174 174
 174 174 174
 174 174 174
 174 174 174
 174 174 174
 174 174 174
 174 174 174
 174 174 174
 174 174 174
 174 174 174
 174 174 174
 174 174 174
 174 174 174
 174 174 174
 175 175 175
 175 175 175
 175 175 175
 175 175 175
 175 175 175
 175 175 175
 175 175 175
 175 175 175
 175 175 175
 175 175 175
 175 175 175
 175 175 175
 175 175 175
 175 175 175
 175 175 175
 175 175 175
 175 175 175
 175 175 175
 175 175 175
 175 175 175
 175 175 175
 175 175 175
 175 175 175
 175 175 175
 175 175 175
 175 176 176
 176 176 176
 176 176 176
 176 176 176
 176 176 176
 176 176 176
 176 176 176
 176 176 176
 176 176 176
 176 176 176
 176 176 176
 176 176 176
 176 176 176
 176 176 176
 176 176 176
 176 176 176
 176 176 176
 176 176 176
 176 176 176
 176 176 176
 176 176 176
 176 176 176
 176 176 176
 176 176 176
 176 176 176
 176 176 176
 177 177 177
 177 177 177
 177 177 177
 177 177 177
 177 177 177
 177 177 177
 177 177 177
 177 177 177
 177 177 177
 177 177 177
 177 177 177
 177 177 177
 177 177 177
 177 177 177
 177 177 177
 177 177 177
 177 177 177
 177 177 177
 177 177 177
 177 177 177
 177 177 177
 177 177 177
 177 177 177
 177 177 177
 177 177 177
 177 177 177
 178 178 178
 178 178 178
 178 178 178
 178 178 178
 178 178 178
 178 178 178
 178 178 178
 178 178 178
 178 178 178
 178 178 178
 178 178 178
 178 178 178
 178 178 178
 178 178 178
 178 178 178
 178 178 178
 178 178 178
 178 178 178
 178 178 178
 178 178 178
 178 178 178
 178 178 178
 178 178 178
 178 178 178
 178 178 178
 178 178 178
 178 179 179
 179 179 179
 179 179 179
 179 179 179
 179 179 179
 179 179 179
 179 179 179
 179 179 179
 179 179 179
 179 179 179
 179 179 179
 179 179 179
 179 179 179
 179 179 179
 179 179 179
 179 179 179
 179 179 179
 179 179 179
 179 179 179
 179 179 179
 179 179 179
 179 179 179
 179 179 179
 179 179 179
 179 179 179
 179 179 179
 179 179 179
 179 180 180
 180 180 180
 180 180 180
 180 180 180
 180 180 180
 180 180 180
 180 180 180
 180 180 180
 180 180 180
 180 180 180
 180 180 180
 180 180 180
 180 180 180
 180 180 180
 180 180 180
 180 180 180
 180 180 180
 180 180 180
 180 180 180
 180 180 180
 180 180 180
 180 180 180
 180 180 180
 180 180 180
 180 180 180
 180 180 180
 180 180 180
 180 180 181
 181 181 181
 181 181 181
 181 181 181
 181 181 181
 181 181 181
 181 181 181
 181 181 181
 181 181 181
 181 181 181
 181 181 181
 181 181 181
 181 181 181
 181 181 181
 181 181 181
 181 181 181
 181 181 181
 181 181 181
 181 181 181
 181 181 181
 181 181 181
 181 181 181
 181 181 181
 181 181 181
 181 181 181
 181 181 181
 181 181 181
 181 181 181
 181 182 182
 182 182 182
 182 182 182
 182 182 182
 182 182 182
 182 182 182
 182 182 182
 182 182 182
 182 182 182
 182 182 182
 182 182 182
 182 182 182
 182 182 182
 182 182 182
 182 182 182
 182 182 182
 182 182 182
 182 182 182
 182 182 182
 182 182 182
 182 182 182
 182 182 182
 182 182 182
 182 182 182
 182 182 182
 182 182 182
 182 182 182
 182 182 182
 182 182 183
 183 183 183
 183 183 183
 183 183 183
 183 183 183
 183 183 183
 183 183 183
 183 183 183
 183 183 183
 183 183 183
 183 183 183
 183 183 183
 183 183 183
 183 183 183
 183 183 183
 183 183 183
 183 183 183
 183 183 183
 183 183 183
 183 183 183
 183 183 183
 183 183 183
 183 183 183
 183 183 183
 183 183 183
 183 183 183
 183 183 183
 183 183 183
 183 183 183
 183 184 184
 184 184 184
 184 184 184
 184 184 184
 184 184 184
 184 184 184
 184 184 184
 184 184 184
 184 184 184
 184 184 184
 184 184 184
 184 184 184
 184 184 184
 184 184 184
 184 184 184
 184 184 184
 184 184 184
 184 184 184
 184 184 184
 184 184 184
 184 184 184
 184 184 184
 184 184 184
 184 184 184
 184 184 184
 184 184 184
 184 184 184
 184 184 184
 184 184 184
 184 185 185
 185 185 185
 185 185 185
 185 185 185
 185 185 185
 185 185 185
 185 185 185
 185 185 185
 185 185 185
 185 185 185
 185 185 185
 185 185 185
 185 185 185
 185 185 185
 185 185 185
 185 185 185
 185 185 185
 185 185 185
 185 185 185
 185 185 185
 185 185 185
 185 185 185
 185 185 185
 185 185 185
 185 185 185
 185 185 185
 185 185 185
 185 185 185
 185 185 185
 185 185 185
 186 186 186
 186 186 186
 186 186 186
 186 186 186
 186 186 186
 186 186 186
 186 186 186
 186 186 186
 186 186 186
 186 186 186
 186 186 186
 186 186 186
 186 186 186
 186 186 186
 186 186 186
 186 186 186
 186 186 186
 186 186 186
 186 186 186
 186 186 186
 186 186 186
 186 186 186
 186 186 186
 186 186 186
 186 186 186
 186 186 186
 186 186 186
 186 186 186
 186 186 186
 186 186 186
 187 187 187
 187 187 187
 187 187 187
 187 187 187
 187 187 187
 187 187 187
 187 187 187
 187 187 187
 187 187 187
 187 187 187
 187 187 187
 187 187 187
 187 187 187
 187 187 187
 187 187 187
 187 187 187
 187 187 187
 187 187 187
 187 187 187
 187 187 187
 187 187 187
 187 187 187
 187 187 187
 187 187 187
 187 187 187
 187 187 187
 187 187 187
 187 187 187
 187 187 187
 187 187 187
 187 187 188
 188 188 188
 188 188 188
 188 188 188
 188 188 188
 188 188 188
 188 188 188
 188 188 188
 188 188 188
 188 188 188
 188 188 188
 188 188 188
 188 188 188
 188 188 188
 188 188 188
 188 188 188
 188 188 188
 188 188 188
 188 188 188
 188 188 188
 188 188 188
 188 188 188
 188 188 188
 188 188 188
 188 188 188
 188 188 188
 188 188 188
 188 188 188
 188 188 188
 188 188 188
 188 188 188
 188 188 189
 189 189 189
 189 189 189
 189 189 189
 189 189 189
 189 189 189
 189 189 189
 189 189 189
 189 189 189
 189 189 189
 189 189 189
 189 189 189
 189 189 189
 189 189 189
 189 189 189
 189 189 189
 189 189 189
 189 189 189
 189 189 189
 189 189 189
 189 189 189
 189 189 189
 189 189 189
 189 189 189
 189 189 189
 189 189 189
 189 189 189
 189 189 189
 189 189 189
 189 189 189
 189 189 189
 189 189 189
 189 190 190
 190 190 190
 190 190 190
 190 190 190
 190 190 190
 190 190 190
 190 190 190
 190 190 190
 190 190 190
 190 190 190
 190 190 190
 190 190 190
 190 190 190
 190 190 190
 190 190 190
 190 190 190
 190 190 190
 190 190 190
 190 190 190
 190 190 190
 190 190 190
 190 190 190
 190 190 190
 190 190 190
 190 190 190
 190 190 190
 190 190 190
 190 190 190
 190 190 190
 190 190 190
 190 190 190
 190 190 190
 190 191 191
 191 191 191
 191 191 191
 191 191 191
 191 191 191
 191 191 191
 191 191 191
 191 191 191
 191 191 191
 191 191 191
 191 191 191
 191 191 191
 191 191 191
 191 191 191
 191 191 191
 191 191 191
 191 191 191
 191 191 191
 191 191 191
 191 191 191
 191 191 191
 191 191 191
 191 191 191
 191 191 191
 191 191 191
 191 191 191
 191 191 191
 191 191 191
 191 191 191
 191 191 191
 191 191 191
 191 191 191
 191 191 191
 192 192 192
 192 192 192
 192 192 192
 192 192 192
 192 192 192
 192 192 192
 192 192 192
 192 192 192
 192 192 192
 192 192 192
 192 192 192
 192 192 192
 192 192 192
 192 192 192
 192 192 192
 192 192 192
 192 192 192
 192 192 192
 192 192 192
 192 192 192
 192 192 192
 192 192 192
 192 192 192
 192 192 192
 192 192 192
 192 192 192
 192 192 192
 192 192 192
 192 192 192
 192 192 192
 192 192 192
 192 192 192
 192 192 192
 193 193 193
 193 193 193
 193 193 193
 193 193 193
 193 193 193
 193 193 193
 193 193 193
 193 193 193
 193 193 193
 193 193 193
 193 193 193
 193 193 193
 193 193 193
 193 193 193
 193 193 193
 193 193 193
 193 193 193
 193 193 193
 193 193 193
 193 193 193
 193 193 193
 193 193 193
 193 193 193
 193 193 193
 193 193 193
 193 193 193
 193 193 193
 193 193 193
 193 193 193
 193 193 193
 193 193 193
 193 193 193
 193 193 193
 193 193 194
 194 194 194
 194 194 194
 194 194 194
 194 194 194
 194 194 194
 194 194 194
 194 194 194
 194 194 194
 194 194 194
 194 194 194
 194 194 194
 194 194 194
 194 194 194
 194 194 194
 194 194 194
 194 194 194
 194 194 194
 194 194 194
 194 194 194
 194 194 194
 194 194 194
 194 194 194
 194 194 194
 194 194 194
 194 194 194
 194 194 194
 194 194 194
 194 194 194
 194 194 194
 194 194 194
 194 194 194
 194 194 194
 194 194 194
 194 194 195
 195 195 195
 195 195 195
 195 195 195
 195 195 195
 195 195 195
 195 195 195
 195 195 195
 195 195 195
 195 195 195
 195 195 195
 195 195 195
 195 195 195
 195 195 195
 195 195 195
 195 195 195
 195 195 195
 195 195 195
 195 195 195
 195 195 195
 195 195 195
 195 195 195
 195 195 195
 195 195 195
 195 195 195
 195 195 195
 195 195 195
 195 195 195
 195 195 195
 195 195 195
 195 195 195
 195 195 195
 195 195 195
 195 195 195
 195 195 195
 195 196 196
 196 196 196
 196 196 196
 196 196 196
 196 196 196
 196 196
0.385000000000000E-010.115500000000000E+000.192500000000000E+00
0.269500000000000E+000.346500000000000E+000.423500000000000E+00
0.500500000000000E+000.577500000000000E+000.654500000000000E+00
0.731500000000000E+000.808500000000000E+000.885500000000000E+00
0.962500000000000E+000.103950000000000E+010.111650000000000E+01
0.119700000000000E+010.128100000000000E+010.136500000000000E+01
0.144900000000000E+010.153300000000000E+010.161700000000000E+01
0.170100000000000E+010.178500000000000E+010.186900000000000E+01
0.195300000000000E+010.203700000000000E+010.212100000000000E+01
0.220500000000000E+010.228900000000000E+010.237300000000000E+01
0.245700000000000E+010.254100000000000E+010.262500000000000E+01
0.270900000000000E+010.279300000000000E+010.288050000000000E+01
0.297150000000000E+010.306250000000000E+010.315350000000000E+01
0.324450000000000E+010.333550000000000E+010.342650000000000E+01
0.351750000000000E+010.360850000000000E+010.369950000000000E+01
0.379050000000000E+010.388150000000000E+010.397250000000000E+01
0.406700000000000E+010.416500000000000E+010.426300000000000E+01
0.436100000000000E+010.445900000000000E+010.455700000000000E+01
0.465500000000000E+010.475300000000000E+010.485100000000000E+01
0.494900000000000E+010.505050000000000E+010.515550000000000E+01
0.526050000000000E+010.536550000000000E+010.547050000000000E+01
0.557550000000000E+010.568050000000000E+010.578550000000000E+01
0.589400000000000E+010.600600000000000E+010.611800000000000E+01
0.623000000000000E+010.634200000000000E+010.645400000000000E+01
0.656600000000000E+010.668150000000000E+010.680050000000000E+01
0.691950000000000E+010.703850000000000E+010.715750000000000E+01
0.728000000000000E+010.740600000000000E+010.753200000000000E+01
0.765800000000000E+010.778400000000000E+010.791350000000000E+01
0.804650000000000E+010.817950000000000E+010.831250000000000E+01
0.844900000000000E+010.858900000000000E+010.872900000000000E+01
0.887250000000000E+010.901950000000000E+010.916650000000000E+01
0.931350000000000E+010.946400000000000E+010.961800000000000E+01
0.977200000000000E+010.992950000000000E+010.100905000000000E+02
0.102515000000000E+020.104160000000000E+020.105840000000000E+02
0.107520000000000E+020.109200000000000E+020.110915000000000E+02
0.112665000000000E+020.114415000000000E+020.116165000000000E+02
0.117950000000000E+020.119770000000000E+020.121590000000000E+02
0.123445000000000E+020.125335000000000E+020.127225000000000E+02
0.129115000000000E+020.131040000000000E+020.133000000000000E+02
0.134995000000000E+020.137025000000000E+020.139055000000000E+02
0.141120000000000E+020.143220000000000E+020.145355000000000E+02
0.147525000000000E+020.149730000000000E+020.151970000000000E+02
0.154245000000000E+020.156590000000000E+020.158970000000000E+02
0.161385000000000E+020.163870000000000E+020.166425000000000E+02
0.169015000000000E+020.171640000000000E+020.174335000000000E+02
0.177100000000000E+020.179935000000000E+020.182840000000000E+02
0.185850000000000E+020.188965000000000E+020.192150000000000E+02
0.195405000000000E+020.198695000000000E+020.202020000000000E+02
0.205380000000000E+020.208775000000000E+020.212205000000000E+02
0.215670000000000E+020.219205000000000E+020.222775000000000E+02
0.226380000000000E+020.230055000000000E+020.233800000000000E+02
0.237615000000000E+020.241465000000000E+020.245350000000000E+02
0.249305000000000E+020.253330000000000E+020.257425000000000E+02
0.261590000000000E+020.265825000000000E+020.270130000000000E+02
0.274505000000000E+020.278950000000000E+020.283465000000000E+02
0.288050000000000E+020.292705000000000E+020.297430000000000E+02
0.302225000000000E+020.307090000000000E+020.312025000000000E+02
0.317030000000000E+020.322105000000000E+020.327285000000000E+02
0.332570000000000E+020.337925000000000E+020.343350000000000E+02
0.348845000000000E+020.354445000000000E+020.360150000000000E+02
0.365925000000000E+020.371805000000000E+020.377790000000000E+02
0.383845000000000E+020.390005000000000E+020.396270000000000E+02
0.402640000000000E+020.409115000000000E+020.415695000000000E+02
0.422380000000000E+020.429170000000000E+020.436065000000000E+02
0.443065000000000E+020.450170000000000E+020.457380000000000E+02
0.464660000000000E+02
 1 1 1
 1 1 1
 1 1 1
 1 1 2
 2 2 2
 2 2 2
 2 2 2
 2 3 3
 3 3 3
 3 3 3
 3 3 3
 4 4 4
 4 4 4
 4 4 4
 4 4 5
 5 5 5
 5 5 5
 5 5 5
 5 6 6
 6 6 6
 6 6 6
 6 6 6
 7 7 7
 7 7 7
 7 7 7
 7 7 8
 8 8 8
 8 8 8
 8 8 8
 8 9 9
 9 9 9
 9 9 9
 9 9 9
 10 10 10
 10 10 10
 10 10 10
 10 10 11
 11 11 11
 11 11 11
 11 11 11
 11 12 12
 12 12 12
 12 12 12
 12 12 12
 13 13 13
 13 13 13
 13 13 13
 13 13 14
 14 14 14
 14 14 14
 14 14 14
 14 15 15
 15 15 15
 15 15 15
 15 15 15
 16 16 16
 16 16 16
 16 16 16
 16 16 17
 17 17 17
 17 17 17
 17 17 17
 17 18 18
 18 18 18
 18 18 18
 18 18 18
 19 19 19
 19 19 19
 19 19 19
 19 19 20
 20 20 20
 20 20 20
 20 20 20
 20 21 21
 21 21 21
 21 21 21
 21 21 21
 22 22 22
 22 22 22
 22 22 22
 22 22 22
 23 23 23
 23 23 23
 23 23 23
 23 23 23
 24 24 24
 24 24 24
 24 24 24
 24 24 24
 25 25 25
 25 25 25
 25 25 25
 25 25 25
 26 26 26
 26 26 26
 26 26 26
 26 26 26
 27 27 27
 27 27 27
 27 27 27
 27 27 27
 28 28 28
 28 28 28
 28 28 28
 28 28 28
 29 29 29
 29 29 29
 29 29 29
 29 29 29
 30 30 30
 30 30 30
 30 30 30
 30 30 30
 31 31 31
 31 31 31
 31 31 31
 31 31 31
 32 32 32
 32 32 32
 32 32 32
 32 32 32
 33 33 33
 33 33 33
 33 33 33
 33 33 33
 34 34 34
 34 34 34
 34 34 34
 34 34 34
 35 35 35
 35 35 35
 35 35 35
 35 35 35
 36 36 36
 36 36 36
 36 36 36
 36 36 36
 37 37 37
 37 37 37
 37 37 37
 37 37 37
 38 38 38
 38 38 38
 38 38 38
 38 38 38
 39 39 39
 39 39 39
 39 39 39
 39 39 39
 40 40 40
 40 40 40
 40 40 40
 40 40 40
 41 41 41
 41 41 41
 41 41 41
 41 41 41
 42 42 42
 42 42 42
 42 42 42
 42 42 42
 43 43 43
 43 43 43
 43 43 43
 43 43 43
 44 44 44
 44 44 44
 44 44 44
 44 44 44
 45 45 45
 45 45 45
 45 45 45
 45 45 45
 46 46 46
 46 46 46
 46 46 46
 46 46 46
 46 47 47
 47 47 47
 47 47 47
 47 47 47
 47 47 48
 48 48 48
 48 48 48
 48 48 48
 48 48 48
 49 49 49
 49 49 49
 49 49 49
 49 49 49
 49 50 50
 50 50 50
 50 50 50
 50 50 50
 50 50 51
 51 51 51
 51 51 51
 51 51 51
 51 51 51
 52 52 52
 52 52 52
 52 52 52
 52 52 52
 52 53 53
 53 53 53
 53 53 53
 53 53 53
 53 53 54
 54 54 54
 54 54 54
 54 54 54
 54 54 54
 55 55 55
 55 55 55
 55 55 55
 55 55 55
 55 56 56
 56 56 56
 56 56 56
 56 56 56
 56 56 57
 57 57 57
 57 57 57
 57 57 57
 57 57 57
 58 58 58
 58 58 58
 58 58 58
 58 58 58
 58 59 59
 59 59 59
 59 59 59
 59 59 59
 59 59 59
 60 60 60
 60 60 60
 60 60 60
 60 60 60
 60 60 61
 61 61 61
 61 61 61
 61 61 61
 61 61 61
 61 62 62
 62 62 62
 62 62 62
 62 62 62
 62 62 62
 63 63 63
 63 63 63
 63 63 63
 63 63 63
 63 63 64
 64 64 64
 64 64 64
 64 64 64
 64 64 64
 64 65 65
 65 65 65
 65 65 65
 65 65 65
 65 65 65
 66 66 66
 66 66 66
 66 66 66
 66 66 66
 66 66 67
 67 67 67
 67 67 67
 67 67 67
 67 67 67
 67 68 68
 68 68 68
 68 68 68
 68 68 68
 68 68 68
 68 69 69
 69 69 69
 69 69 69
 69 69 69
 69 69 69
 69 70 70
 70 70 70
 70 70 70
 70 70 70
 70 70 70
 70 71 71
 71 71 71
 71 71 71
 71 71 71
 71 71 71
 71 72 72
 72 72 72
 72 72 72
 72 72 72
 72 72 72
 72 73 73
 73 73 73
 73 73 73
 73 73 73
 73 73 73
 73 74 74
 74 74 74
 74 74 74
 74 74 74
 74 74 74
 74 75 75
 75 75 75
 75 75 75
 75 75 75
 75 75 75
 75 75 76
 76 76 76
 76 76 76
 76 76 76
 76 76 76
 76 76 76
 77 77 77
 77 77 77
 77 77 77
 77 77 77
 77 77 77
 77 78 78
 78 78 78
 78 78 78
 78 78 78
 78 78 78
 78 78 79
 79 79 79
 79 79 79
 79 79 79
 79 79 79
 79 79 79
 80 80 80
 80 80 80
 80 80 80
 80 80 80
 80 80 80
 80 81 81
 81 81 81
 81 81 81
 81 81 81
 81 81 81
 81 81 81
 82 82 82
 82 82 82
 82 82 82
 82 82 82
 82 82 82
 82 82 83
 83 83 83
 83 83 83
 83 83 83
 83 83 83
 83 83 83
 83 84 84
 84 84 84
 84 84 84
 84 84 84
 84 84 84
 84 84 84
 85 85 85
 85 85 85
 85 85 85
 85 85 85
 85 85 85
 85 85 86
 86 86 86
 86 86 86
 86 86 86
 86 86 86
 86 86 86
 86 86 87
 87 87 87
 87 87 87
 87 87 87
 87 87 87
 87 87 87
 87 87 88
 88 88 88
 88 88 88
 88 88 88
 88 88 88
 88 88 88
 88 88 89
 89 89 89
 89 89 89
 89 89 89
 89 89 89
 89 89 89
 89 89 90
 90 90 90
 90 90 90
 90 90 90
 90 90 90
 90 90 90
 90 90 90
 91 91 91
 91 91 91
 91 91 91
 91 91 91
 91 91 91
 91 91 91
 91 92 92
 92 92 92
 92 92 92
 92 92 92
 92 92 92
 92 92 92
 92 92 93
 93 93 93
 93 93 93
 93 93 93
 93 93 93
 93 93 93
 93 93 93
 94 94 94
 94 94 94
 94 94 94
 94 94 94
 94 94 94
 94 94 94
 94 94 95
 95 95 95
 95 95 95
 95 95 95
 95 95 95
 95 95 95
 95 95 95
 95 96 96
 96 96 96
 96 96 96
 96 96 96
 96 96 96
 96 96 96
 96 96 96
 97 97 97
 97 97 97
 97 97 97
 97 97 97
 97 97 97
 97 97 97
 97 97 97
 98 98 98
 98 98 98
 98 98 98
 98 98 98
 98 98 98
 98 98 98
 98 98 98
 99 99 99
 99 99 99
 99 99 99
 99 99 99
 99 99 99
 99 99 99
 99 99 99
 100 100 100
 100 100 100
 100 100 100
 100 100 100
 100 100 100
 100 100 100
 100 100 100
 100 101 101
 101 101 101
 101 101 101
 101 101 101
 101 101 101
 101 101 101
 101 101 101
 101 101 102
 102 102 102
 102 102 102
 102 102 102
 102 102 102
 102 102 102
 102 102 102
 102 102 102
 102 103 103
 103 103 103
 103 103 103
 103 103 103
 103 103 103
 103 103 103
 103 103 103
 103 103 103
 104 104 104
 104 104 104
 104 104 104
 104 104 104
 104 104 104
 104 104 104
 104 104 104
 104 104 104
 105 105 105
 105 105 105
 105 105 105
 105 105 105
 105 105 105
 105 105 105
 105 105 105
 105 105 105
 106 106 106
 106 106 106
 106 106 106
 106 106 106
 106 106 106
 106 106 106
 106 106 106
 106 106 106
 106 107 107
 107 107 107
 107 107 107
 107 107 107
 107 107 107
 107 107 107
 107 107 107
 107 107 107
 107 107 108
 108 108 108
 108 108 108
 108 108 108
 108 108 108
 108 108 108
 108 108 108
 108 108 108
 108 108 108
 108 109 109
 109 109 109
 109 109 109
 109 109 109
 109 109 109
 109 109 109
 109 109 109
 109 109 109
 109 109 109
 109 110 110
 110 110 110
 110 110 110
 110 110 110
 110 110 110
 110 110 110
 110 110 110
 110 110 110
 110 110 110
 110 111 111
 111 111 111
 111 111 111
 111 111 111
 111 111 111
 111 111 111
 111 111 111
 111 111 111
 111 111 111
 111 111 112
 112 112 112
 112 112 112
 112 112 112
 112 112 112
 112 112 112
 112 112 112
 112 112 112
 112 112 112
 112 112 112
 113 113 113
 113 113 113
 113 113 113
 113 113 113
 113 113 113
 113 113 113
 113 113 113
 113 113 113
 113 113 113
 113 113 114
 114 114 114
 114 114 114
 114 114 114
 114 114 114
 114 114 114
 114 114 114
 114 114 114
 114 114 114
 114 114 114
 114 115 115
 115 115 115
 115 115 115
 115 115 115
 115 115 115
 115 115 115
 115 115 115
 115 115 115
 115 115 115
 115 115 115
 115 116 116
 116 116 116
 116 116 116
 116 116 116
 116 116 116
 116 116 116
 116 116 116
 116 116 116
 116 116 116
 116 116 116
 116 117 117
 117 117 117
 117 117 117
 117 117 117
 117 117 117
 117 117 117
 117 117 117
 117 117 117
 117 117 117
 117 117 117
 117 117 118
 118 118 118
 118 118 118
 118 118 118
 118 118 118
 118 118 118
 118 118 118
 118 118 118
 118 118 118
 118 118 118
 118 118 118
 119 119 119
 119 119 119
 119 119 119
 119 119 119
 119 119 119
 119 119 119
 119 119 119
 119 119 119
 119 119 119
 119 119 119
 119 119 120
 120 120 120
 120 120 120
 120 120 120
 120 120 120
 120 120 120
 120 120 120
 120 120 120
 120 120 120
 120 120 120
 120 120 120
 120 121 121
 121 121 121
 121 121 121
 121 121 121
 121 121 121
 121 121 121
 121 121 121
 121 121 121
 121 121 121
 121 121 121
 121 121 121
 122 122 122
 122 122 122
 122 122 122
 122 122 122
 122 122 122
 122 122 122
 122 122 122
 122 122 122
 122 122 122
 122 122 122
 122 122 122
 123 123 123
 123 123 123
 123 123 123
 123 123 123
 123 123 123
 123 123 123
 123 123 123
 123 123 123
 123 123 123
 123 123 123
 123 123 123
 124 124 124
 124 124 124
 124 124 124
 124 124 124
 124 124 124
 124 124 124
 124 124 124
 124 124 124
 124 124 124
 124 124 124
 124 124 124
 124 125 125
 125 125 125
 125 125 125
 125 125 125
 125 125 125
 125 125 125
 125 125 125
 125 125 125
 125 125 125
 125 125 125
 125 125 125
 125 125 126
 126 126 126
 126 126 126
 126 126 126
 126 126 126
 126 126 126
 126 126 126
 126 126 126
 126 126 126
 126 126 126
 126 126 126
 126 126 126
 126 127 127
 127 127 127
 127 127 127
 127 127 127
 127 127 127
 127 127 127
 127 127 127
 127 127 127
 127 127 127
 127 127 127
 127 127 127
 127 127 127
 127 128 128
 128 128 128
 128 128 128
 128 128 128
 128 128 128
 128 128 128
 128 128 128
 128 128 128
 128 128 128
 128 128 128
 128 128 128
 128 128 128
 128 129 129
 129 129 129
 129 129 129
 129 129 129
 129 129 129
 129 129 129
 129 129 129
 129 129 129
 129 129 129
 129 129 129
 129 129 129
 129 129 129
 129 129 130
 130 130 130
 130 130 130
 130 130 130
 130 130 130
 130 130 130
 130 130 130
 130 130 130
 130 130 130
 130 130 130
 130 130 130
 130 130 130
 130 130 130
 130 131 131
 131 131 131
 131 131 131
 131 131 131
 131 131 131
 131 131 131
 131 131 131
 131 131 131
 131 131 131
 131 131 131
 131 131 131
 131 131 131
 131 131 131
 131 132 132
 132 132 132
 132 132 132
 132 132 132
 132 132 132
 132 132 132
 132 132 132
 132 132 132
 132 132 132
 132 132 132
 132 132 132
 132 132 132
 132 132 132
 132 132 133
 133 133 133
 133 133 133
 133 133 133
 133 133 133
 133 133 133
 133 133 133
 133 133 133
 133 133 133
 133 133 133
 133 133 133
 133 133 133
 133 133 133
 133 133 133
 133 134 134
 134 134 134
 134 134 134
 134 134 134
 134 134 134
 134 134 134
 134 134 134
 134 134 134
 134 134 134
 134 134 134
 134 134 134
 134 134 134
 134 134 134
 134 134 134
 134 135 135
 135 135 135
 135 135 135
 135 135 135
 135 135 135
 135 135 135
 135 135 135
 135 135 135
 135 135 135
 135 135 135
 135 135 135
 135 135 135
 135 135 135
 135 135 135
 135 135 135
 136 136 136
 136 136 136
 136 136 136
 136 136 136
 136 136 136
 136 136 136
 136 136 136
 136 136 136
 136 136 136
 136 136 136
 136 136 136
 136 136 136
 136 136 136
 136 136 136
 136 136 136
 137 137 137
 137 137 137
 137 137 137
 137 137 137
 137 137 137
 137 137 137
 137 137 137
 137 137 137
 137 137 137
 137 137 137
 137 137 137
 137 137 137
 137 137 137
 137 137 137
 137 137 137
 137 137 138
 138 138 138
 138 138 138
 138 138 138
 138 138 138
 138 138 138
 138 138 138
 138 138 138
 138 138 138
 138 138 138
 138 138 138
 138 138 138
 138 138 138
 138 138 138
 138 138 138
 138 138 138
 138 138 139
 139 139 139
 139 139 139
 139 139 139
 139 139 139
 139 139 139
 139 139 139
 139 139 139
 139 139 139
 139 139 139
 139 139 139
 139 139 139
 139 139 139
 139 139 139
 139 139 139
 139 139 139
 139 139 139
 139 140 140
 140 140 140
 140 140 140
 140 140 140
 140 140 140
 140 140 140
 140 140 140
 140 140 140
 140 140 140
 140 140 140
 140 140 140
 140 140 140
 140 140 140
 140 140 140
 140 140 140
 140 140 140
 140 140 140
 140 140 141
 141 141 141
 141 141 141
 141 141 141
 141 141 141
 141 141 141
 141 141 141
 141 141 141
 141 141 141
 141 141 141
 141 141 141
 141 141 141
 141 141 141
 141 141 141
 141 141 141
 141 141 141
 141 141 141
 141 141 141
 141 141 141
 142 142 142
 142 142 142
 142 142 142
 142 142 142
 142 142 142
 142 142 142
 142 142 142
 142 142 142
 142 142 142
 142 142 142
 142 142 142
 142 142 142
 142 142 142
 142 142 142
 142 142 142
 142 142 142
 142 142 142
 142 142 142
 142 142 142
 143 143 143
 143 143 143
 143 143 143
 143 143 143
 143 143 143
 143 143 143
 143 143 143
 143 143 143
 143 143 143
 143 143 143
 143 143 143
 143 143 143
 143 143 143
 143 143 143
 143 143 143
 143 143 143
 143 143 143
 143 143 143
 143 143 143
 143 143 143
 144 144 144
 144 144 144
 144 144 144
 144 144 144
 144 144 144
 144 144 144
 144 144 144
 144 144 144
 144 144 144
 144 144 144
 144 144 144
 144 144 144
 144 144 144
 144 144 144
 144 144 144
 144 144 144
 144 144 144
 144 144 144
 144 144 144
 144 144 144
 144 144 144
 145 145 145
 145 145 145
 145 145 145
 145 145 145
 145 145 145
 145 145 145
 145 145 145
 145 145 145
 145 145 145
 145 145 145
 145 145 145
 145 145 145
 145 145 145
 145 145 145
 145 145 145
 145 145 145
 145 145 145
 145 145 145
 145 145 145
 145 145 145
 145 145 145
 145 145 145
 146 146 146
 146 146 146
 146 146 146
 146 146 146
 146 146 146
 146 146 146
 146 146 146
 146 146 146
 146 146 146
 146 146 146
 146 146 146
 146 146 146
 146 146 146
 146 146 146
 146 146 146
 146 146 146
 146 146 146
 146 146 146
 146 146 146
 146 146 146
 146 146 146
 146 146 146
 146 146 146
 147 147 147
 147 147 147
 147 147 147
 147 147 147
 147 147 147
 147 147 147
 147 147 147
 147 147 147
 147 147 147
 147 147 147
 147 147 147
 147 147 147
 147 147 147
 147 147 147
 147 147 147
 147 147 147
 147 147 147
 147 147 147
 147 147 147
 147 147 147
 147 147 147
 147 147 147
 147 147 147
 147 147 148
 148 148 148
 148 148 148
 148 148 148
 148 148 148
 148 148 148
 148 148 148
 148 148 148
 148 148 148
 148 148 148
 148 148 148
 148 148 148
 148 148 148
 148 148 148
 148 148 148
 148 148 148
 148 148 148
 148 148 148
 148 148 148
 148 148 148
 148 148 148
 148 148 148
 148 148 148
 148 148 148
 148 148 149
 149 149 149
 149 149 149
 149 149 149
 149 149 149
 149 149 149
 149 149 149
 149 149 149
 149 149 149
 149 149 149
 149 149 149
 149 149 149
 149 149 149
 149 149 149
 149 149 149
 149 149 149
 149 149 149
 149 149 149
 149 149 149
 149 149 149
 149 149 149
 149 149 149
 149 149 149
 149 149 149
 149 149 149
 150 150 150
 150 150 150
 150 150 150
 150 150 150
 150 150 150
 150 150 150
 150 150 150
 150 150 150
 150 150 150
 150 150 150
 150 150 150
 150 150 150
 150 150 150
 150 150 150
 150 150 150
 150 150 150
 150 150 150
 150 150 150
 150 150 150
 150 150 150
 150 150 150
 150 150 150
 150 150 150
 150 150 150
 150 150 150
 151 151 151
 151 151 151
 151 151 151
 151 151 151
 151 151 151
 151 151 151
 151 151 151
 151 151 151
 151 151 151
 151 151 151
 151 151 151
 151 151 151
 151 151 151
 151 151 151
 151 151 151
 151 151 151
 151 151 151
 151 151 151
 151 151 151
 151 151 151
 151 151 151
 151 151 151
 151 151 151
 151 151 151
 151 151 151
 151 152 152
 152 152 152
 152 152 152
 152 152 152
 152 152 152
 152 152 152
 152 152 152
 152 152 152
 152 152 152
 152 152 152
 152 152 152
 152 152 152
 152 152 152
 152 152 152
 152 152 152
 152 152 152
 152 152 152
 152 152 152
 152 152 152
 152 152 152
 152 152 152
 152 152 152
 152 152 152
 152 152 152
 152 152 152
 152 152 152
 152 153 153
 153 153 153
 153 153 153
 153 153 153
 153 153 153
 153 153 153
 153 153 153
 153 153 153
 153 153 153
 153 153 153
 153 153 153
 153 153 153
 153 153 153
 153 153 153
 153 153 153
 153 153 153
 153 153 153
 153 153 153
 153 153 153
 153 153 153
 153 153 153
 153 153 153
 153 153 153
 153 153 153
 153 153 153
 153 153 153
 153 153 153
 154 154 154
 154 154 154
 154 154 154
 154 154 154
 154 154 154
 154 154 154
 154 154 154
 154 154 154
 154 154 154
 154 154 154
 154 154 154
 154 154 154
 154 154 154
 154 154 154
 154 154 154
 154 154 154
 154 154 154
 154 154 154
 154 154 154
 154 154 154
 154 154 154
 154 154 154
 154 154 154
 154 154 154
 154 154 154
 154 154 154
 154 154 154
 155 155 155
 155 155 155
 155 155 155
 155 155 155
 155 155 155
 155 155 155
 155 155 155
 155 155 155
 155 155 155
 155 155 155
 155 155 155
 155 155 155
 155 155 155
 155 155 155
 155 155 155
 155 155 155
 155 155 155
 155 155 155
 155 155 155
 155 155 155
 155 155 155
 155 155 155
 155 155 155
 155 155 155
 155 155 155
 155 155 155
 155 155 155
 155 155 156
 156 156 156
 156 156 156
 156 156 156
 156 156 156
 156 156 156
 156 156 156
 156 156 156
 156 156 156
 156 156 156
 156 156 156
 156 156 156
 156 156 156
 156 156 156
 156 156 156
 156 156 156
 156 156 156
 156 156 156
 156 156 156
 156 156 156
 156 156 156
 156 156 156
 156 156 156
 156 156 156
 156 156 156
 156 156 156
 156 156 156
 156 156 156
 156 156 156
 157 157 157
 157 157 157
 157 157 157
 157 157 157
 157 157 157
 157 157 157
 157 157 157
 157 157 157
 157 157 157
 157 157 157
 157 157 157
 157 157 157
 157 157 157
 157 157 157
 157 157 157
 157 157 157
 157 157 157
 157 157 157
 157 157 157
 157 157 157
 157 157 157
 157 157 157
 157 157 157
 157 157 157
 157 157 157
 157 157 157
 157 157 157
 157 157 157
 157 157 157
 158 158 158
 158 158 158
 158 158 158
 158 158 158
 158 158 158
 158 158 158
 158 158 158
 158 158 158
 158 158 158
 158 158 158
 158 158 158
 158 158 158
 158 158 158
 158 158 158
 158 158 158
 158 158 158
 158 158 158
 158 158 158
 158 158 158
 158 158 158
 158 158 158
 158 158 158
 158 158 158
 158 158 158
 158 158 158
 158 158 158
 158 158 158
 158 158 158
 158 158 158
 158 158 159
 159 159 159
 159 159 159
 159 159 159
 159 159 159
 159 159 159
 159 159 159
 159 159 159
 159 159 159
 159 159 159
 159 159 159
 159 159 159
 159 159 159
 159 159 159
 159 159 159
 159 159 159
 159 159 159
 159 159 159
 159 159 159
 159 159 159
 159 159 159
 159 159 159
 159 159 159
 159 159 159
 159 159 159
 159 159 159
 159 159 159
 159 159 159
 159 159 159
 159 159 159
 159 159 159
 160 160 160
 160 160 160
 160 160 160
 160 160 160
 160 160 160
 160 160 160
 160 160 160
 160 160 160
 160 160 160
 160 160 160
 160 160 160
 160 160 160
 160 160 160
 160 160 160
 160 160 160
 160 160 160
 160 160 160
 160 160 160
 160 160 160
 160 160 160
 160 160 160
 160 160 160
 160 160 160
 160 160 160
 160 160 160
 160 160 160
 160 160 160
 160 160 160
 160 160 160
 160 160 160
 160 160 160
 161 161 161
 161 161 161
 161 161 161
 161 161 161
 161 161 161
 161 161 161
 161 161 161
 161 161 161
 161 161 161
 161 161 161
 161 161 161
 161 161 161
 161 161 161
 161 161 161
 161 161 161
 161 161 161
 161 161 161
 161 161 161
 161 161 161
 161 161 161
 161 161 161
 161 161 161
 161 161 161
 161 161 161
 161 161 161
 161 161 161
 161 161 161
 161 161 161
 161 161 161
 161 161 161
 161 161 161
 161 161 162
 162 162 162
 162 162 162
 162 162 162
 162 162 162
 162 162 162
 162 162 162
 162 162 162
 162 162 162
 162 162 162
 162 162 162
 162 162 162
 162 162 162
 162 162 162
 162 162 162
 162 162 162
 162 162 162
 162 162 162
 162 162 162
 162 162 162
 162 162 162
 162 162 162
 162 162 162
 162 162 162
 162 162 162
 162 162 162
 162 162 162
 162 162 162
 162 162 162
 162 162 162
 162 162 162
 162 162 162
 162 162 162
 163 163 163
 163 163 163
 163 163 163
 163 163 163
 163 163 163
 163 163 163
 163 163 163
 163 163 163
 163 163 163
 163 163 163
 163 163 163
 163 163 163
 163 163 163
 163 163 163
 163 163 163
 163 163 163
 163 163 163
 163 163 163
 163 163 163
 163 163 163
 163 163 163
 163 163 163
 163 163 163
 163 163 163
 163 163 163
 163 163 163
 163 163 163
 163 163 163
 163 163 163
 163 163 163
 163 163 163
 163 163 163
 163 163 163
 164 164 164
 164 164 164
 164 164 164
 164 164 164
 164 164 164
 164 164 164
 164 164 164
 164 164 164
 164 164 164
 164 164 164
 164 164 164
 164 164 164
 164 164 164
 164 164 164
 164 164 164
 164 164 164
 164 164 164
 164 164 164
 164 164 164
 164 164 164
 164 164 164
 164 164 164
 164 164 164
 164 164 164
 164 164 164
 164 164 164
 164 164 164
 164 164 164
 164 164 164
 164 164 164
 164 164 164
 164 164 164
 164 164 164
 164 164 165
 165 165 165
 165 165 165
 165 165 165
 165 165 165
 165 165 165
 165 165 165
 165 165 165
 165 165 165
 165 165 165
 165 165 165
 165 165 165
 165 165 165
 165 165 165
 165 165 165
 165 165 165
 165 165 165
 165 165 165
 165 165 165
 165 165 165
 165 165 165
 165 165 165
 165 165 165
 165 165 165
 165 165 165
 165 165 165
 165 165 165
 165 165 165
 165 165 165
 165 165 165
 165 165 165
 165 165 165
 165 165 165
 165 165 165
 165 165 165
 165 166 166
 166 166 166
 166 166 166
 166 166 166
 166 166 166
 166 166 166
 166 166 166
 166 166 166
 166 166 166
 166 166 166
 166 166 166
 166 166 166
 166 166 166
 166 166 166
 166 166 166
 166 166 166
 166 166 166
 166 166 166
 166 166 166
 166 166 166
 166 166 166
 166 166 166
 166 166 166
 166 166 166
 166 166 166
 166 166 166
 166 166 166
 166 166 166
 166 166 166
 166 166 166
 166 166 166
 166 166 166
 166 166 166
 166 166 166
 166 166 166
 166 166 167
 167 167 167
 167 167 167
 167 167 167
 167 167 167
 167 167 167
 167 167 167
 167 167 167
 167 167 167
 167 167 167
 167 167 167
 167 167 167
 167 167 167
 167 167 167
 167 167 167
 167 167 167
 167 167 167
 167 167 167
 167 167 167
 167 167 167
 167 167 167
 167 167 167
 167 167 167
 167 167 167
 167 167 167
 167 167 167
 167 167 167
 167 167 167
 167 167 167
 167 167 167
 167 167 167
 167 167 167
 167 167 167
 167 167 167
 167 167 167
 167 167 167
 167 167 168
 168 168 168
 168 168 168
 168 168 168
 168 168 168
 168 168 168
 168 168 168
 168 168 168
 168 168 168
 168 168 168
 168 168 168
 168 168 168
 168 168 168
 168 168 168
 168 168 168
 168 168 168
 168 168 168
 168 168 168
 168 168 168
 168 168 168
 168 168 168
 168 168 168
 168 168 168
 168 168 168
 168 168 168
 168 168 168
 168 168 168
 168 168 168
 168 168 168
 168 168 168
 168 168 168
 168 168 168
 168 168 168
 168 168 168
 168 168 168
 168 168 168
 168 168 168
 168 168 169
 169 169 169
 169 169 169
 169 169 169
 169 169 169
 169 169 169
 169 169 169
 169 169 169
 169 169 169
 169 169 169
 169 169 169
 169 169 169
 169 169 169
 169 169 169
 169 169 169
 169 169 169
 169 169 169
 169 169 169
 169 169 169
 169 169 169
 169 169 169
 169 169 169
 169 169 169
 169 169 169
 169 169 169
 169 169 169
 169 169 169
 169 169 169
 169 169 169
 169 169 169
 169 169 169
 169 169 169
 169 169 169
 169 169 169
 169 169 169
 169 169 169
 169 169 169
 169 169 169
 169 170 170
 170 170 170
 170 170 170
 170 170 170
 170 170 170
 170 170 170
 170 170 170
 170 170 170
 170 170 170
 170 170 170
 170 170 170
 170 170 170
 170 170 170
 170 170 170
 170 170 170
 170 170 170
 170 170 170
 170 170 170
 170 170 170
 170 170 170
 170 170 170
 170 170 170
 170 170 170
 170 170 170
 170 170 170
 170 170 170
 170 170 170
 170 170 170
 170 170 170
 170 170 170
 170 170 170
 170 170 170
 170 170 170
 170 170 170
 170 170 170
 170 170 170
 170 170 170
 170 170 170
 170 170 170
 171 171 171
 171 171 171
 171 171 171
 171 171 171
 171 171 171
 171 171 171
 171 171 171
 171 171 171
 171 171 171
 171 171 171
 171 171 171
 171 171 171
 171 171 171
 171 171 171
 171 171 171
 171 171 171
 171 171 171
 171 171 171
 171 171 171
 171 171 171
 171 171 171
 171 171 171
 171 171 171
 171 171 171
 171 171 171
 171 171 171
 171 171 171
 171 171 171
 171 171 171
 171 171 171
 171 171 171
 171 171 171
 171 171 171
 171 171 171
 171 171 171
 171 171 171
 171 171 171
 171 171 171
 171 171 171
 171 172 172
 172 172 172
 172 172 172
 172 172 172
 172 172 172
 172 172 172
 172 172 172
 172 172 172
 172 172 172
 172 172 172
 172 172 172
 172 172 172
 172 172 172
 172 172 172
 172 172 172
 172 172 172
 172 172 172
 172 172 172
 172 172 172
 172 172 172
 172 172 172
 172 172 172
 172 172 172
 172 172 172
 172 172 172
 172 172 172
 172 172 172
 172 172 172
 172 172 172
 172 172 172
 172 172 172
 172 172 172
 172 172 172
 172 172 172
 172 172 172
 172 172 172
 172 172 172
 172 172 172
 172 172 172
 172 172 172
 172 172 173
 173 173 173
 173 173 173
 173 173 173
 173 173 173
 173 173 173
 173 173 173
 173 173 173
 173 173 173
 173 173 173
 173 173 173
 173 173 173
 173 173 173
 173 173 173
 173 173 173
 173 173 173
 173 173 173
 173 173 173
 173 173 173
 173 173 173
 173 173 173
 173 173 173
 173 173 173
 173 173 173
 173 173 173
 173 173 173
 173 173 173
 173 173 173
 173 173 173
 173 173 173
 173 173 173
 173 173 173
 173 173 173
 173 173 173
 173 173 173
 173 173 173
 173
0.495000000000000E-010.148500000000000E+000.247500000000000E+00
0.346500000000000E+000.445500000000000E+000.544500000000000E+00
0.643500000000000E+000.742500000000000E+000.841500000000000E+00
0.940500000000000E+000.103950000000000E+010.113850000000000E+01
0.123750000000000E+010.133650000000000E+010.143550000000000E+01
0.153450000000000E+010.163350000000000E+010.173250000000000E+01
0.183150000000000E+010.193050000000000E+010.202950000000000E+01
0.213300000000000E+010.224100000000000E+010.234900000000000E+01
0.245700000000000E+010.256500000000000E+010.267300000000000E+01
0.278100000000000E+010.288900000000000E+010.299700000000000E+01
0.310500000000000E+010.321300000000000E+010.332100000000000E+01
0.342900000000000E+010.353700000000000E+010.364500000000000E+01
0.375300000000000E+010.386100000000000E+010.396900000000000E+01
0.407700000000000E+010.418500000000000E+010.429300000000000E+01
0.440100000000000E+010.450900000000000E+010.461700000000000E+01
0.472950000000000E+010.484650000000000E+010.496350000000000E+01
0.508050000000000E+010.519750000000000E+010.531450000000000E+01
0.543150000000000E+010.554850000000000E+010.566550000000000E+01
0.578250000000000E+010.589950000000000E+010.601650000000000E+01
0.613350000000000E+010.625500000000000E+010.638100000000000E+01
0.650700000000000E+010.663300000000000E+010.675900000000000E+01
0.688500000000000E+010.701100000000000E+010.713700000000000E+01
0.726300000000000E+010.739350000000000E+010.752850000000000E+01
0.766350000000000E+010.779850000000000E+010.793350000000000E+01
0.806850000000000E+010.820350000000000E+010.834300000000000E+01
0.848700000000000E+010.863100000000000E+010.877500000000000E+01
0.891900000000000E+010.906300000000000E+010.921150000000000E+01
[...]
0.184565300795486E-070.166360241373908E-070.150063005750718E-07
0.135462756041696E-070.122373078810731E-070.110629034040638E-07
0.100084574043382E-070.906102847096606E-080.820914074859415E-08
0.744261057300229E-080.675239452134245E-080.613045590383125E-08
0.556964768375295E-080.506360942615470E-080.460667678636024E-08
0.419380178969156E-080.382048260167730E-080.348270170368467E-08
0.317687130653662E-080.289978519200577E-080.264857620245225E-08
0.242067862800609E-080.221379500649958E-080.202586666780342E-08
0.185504772625208E-080.169968197650726E-080.155828242455354E-08
0.142951315155903E-080.131217316445437E-080.120518208844586E-08
0.110756742594788E-080.101845322831787E-080.937050009451922E-09
0.862645769601591E-090.794597993162689E-090.732326497847116E-09
0.675307073567670E-090.623065797221504E-090.575173950925993E-09
0.531243477173147E-090.490922918464274E-090.453893791771860E-09
0.419867323818712E-090.388581541230060E-090.359798662971883E-09
0.333302751747865E-090.307742706443527E-090.283198342717119E-09
0.260744370717625E-090.240188067408671E-090.221355691807073E-09
0.204090565883455E-090.188251368673547E-090.173710611254515E-09
0.160353279002516E-090.148075620183262E-090.136784059559386E-09
0.126394231009145E-090.116830101840847E-090.108023193504420E-09
0.999118724987141E-100.924407084023106E-100.855598956261345E-10
0.789526414150283E-100.726405536937304E-100.668818281621383E-10
0.616353547709802E-100.568645691419250E-100.525368647345035E-10
0.486230214560800E-100.450966494931412E-100.419336532378759E-10
0.390033219351967E-100.363204397947883E-100.339862741318663E-10
0.319753213090248E-100.302617243515895E-100.288186910854468E-10
0.275775441218566E-100.265289345845847E-100.256849743459790E-10
0.250027451585683E-100.244186001730172E-100.238891272665825E-10
0.233779550908904E-100.228065746328304E-100.221077856258420E-10
0.212392855813154E-100.201137277079484E-100.186742962680660E-10
0.168754855589565E-100.147017852675912E-100.121670572852434E-10
0.933037868915422E-110.629161874826943E-110.311799977883801E-11
0.375398137033935E-14-.281675775846462E-11-.506057822106240E-11
-.656448848267759E-11-.725333160690737E-11-.707591594478492E-11
-.607161839437644E-11-.440986398421645E-11-.237573965783655E-11
-.304284077337669E-120.153786072857409E-110.289136464628695E-11
0.358631938281680E-110.365218492172591E-110.326142146490687E-11
0.262860015146477E-110.194959343847970E-110.134719516653801E-11
0.867831115351369E-120.521984907935116E-120.292709799662337E-12
0.153528107593323E-120.764661667716983E-130.375459953382566E-13
0.196116185437333E-130.116174100056296E-130.758272309224056E-14
0.510499600032379E-140.346350896008300E-140.238291566104399E-14
0.543193166527260E-050.464050316383299E-050.396782480091814E-05
0.339560881039114E-050.290844999655532E-050.249336178476554E-05
0.213938836732815E-050.183728024903097E-050.157922264627667E-05
0.135860797633996E-050.116984515355648E-050.100819962358273E-05
0.869659095296465E-060.750820760091171E-060.648796497896772E-06
0.561133142963764E-060.485745372149710E-060.420859178338630E-06
0.364964222732180E-060.316773648143964E-060.275190155747308E-06
0.239277352404980E-060.208235530863826E-060.181381182314453E-06
0.158129654319652E-060.137980460071888E-060.120504825033210E-06
0.105335122412357E-060.921559041681051E-070.806962817994331E-07
0.707234482242865E-070.620371663386698E-070.544650765993514E-07
0.478586984831719E-070.420900213693795E-070.370485953313469E-07
0.326390469821460E-070.287789565675564E-070.253970424674804E-07
0.224316075027078E-070.198292081986036E-070.175435142961654E-07
0.155343304817386E-070.137667567223982E-070.122104669724656E-07
0.108390891428743E-070.962967174042822E-080.856222464566503E-08
0.761932354545887E-080.678576883035036E-080.604829133187746E-08
0.539529823091980E-080.481665349388560E-080.430348804153461E-08
0.384803546107715E-080.344348973885700E-080.308388198426665E-08
0.276397350345809E-080.247916301851363E-080.222540607037577E-08
0.199914498792680E-080.179724796457069E-080.161695603516169E-08
0.145583689988746E-080.131174466383721E-080.118278473019105E-08
0.106728315021433E-080.963759852613825E-090.870905242939361E-09
0.787559735058155E-090.712695833961350E-090.645402438246091E-09
0.584871085049342E-090.530383880935832E-090.481302910036928E-09
0.437060927540613E-090.397153182664547E-090.361130224767810E-09
0.328591571302560E-090.299180130467630E-090.272577287433437E-09
0.248498568488990E-090.225669432003490E-090.204135430365020E-09
0.184793198410910E-090.167405745671972E-090.151763088845797E-09
0.137679038308763E-090.124988383640312E-090.113544429112136E-09
0.103216831137794E-090.938897012583159E-100.854599399953912E-10
0.778357715217895E-100.709354555521032E-100.646861516170078E-10
0.590229186708684E-100.538878319003947E-100.492292017222290E-10
0.448209899692216E-100.406687036827315E-100.369301473228825E-10
0.335634214428479E-100.305314143860185E-100.278012211339586E-10
0.253436258788012E-100.231326401615261E-100.211450877523123E-10
0.192911918348858E-100.175725242072179E-100.160478049819228E-10
0.146978397199909E-100.135051207616133E-100.124535054191021E-10
0.114953327000124E-100.106274815096635E-100.987186228838084E-11
0.921228505499537E-110.861408618776186E-110.806773280932258E-11
0.757791370311675E-110.711333378053923E-110.665966841022792E-11
0.621575286509982E-110.575296770333403E-110.525835252984792E-11
0.472127725436173E-110.413593049862337E-110.350223775460100E-11
0.282821612244208E-110.213000268566696E-110.141504392500901E-11
0.718889385384277E-120.851461321678405E-13-.430852911017117E-12
-.798205804218472E-12-.100372305618421E-11-.103770573368533E-11
-.906137019536139E-12-.640296091871985E-12-.294501634253886E-12
0.665804509031713E-130.389964746215517E-120.624823100413956E-12
0.738072776826265E-120.734787481473582E-120.647468872942256E-12
0.516890026411000E-120.380280415465109E-120.260644440858389E-12
0.166271188688541E-120.986820991957419E-130.542115198013368E-13
0.274684410546167E-130.128705094331241E-130.568412357383671E-14
0.254438948260321E-140.129823125367634E-140.784653972947542E-15
0.518534573214298E-150.350981390962540E-150.241429443442670E-15
0.145698587273795E-040.121856757403169E-040.101988936664423E-04
0.854217544715191E-050.715976329418248E-050.600546087313489E-05
0.504097137307958E-050.423452800518748E-050.355976489756343E-05
0.299478570718874E-050.252139493106306E-050.212446315496761E-05
0.179140262943845E-050.151173376042164E-050.127672656164802E-05
0.107910394166822E-050.912796027838504E-060.772736634679697E-06
0.654694550381023E-060.555133608360053E-060.471096563455366E-06
0.400108669099012E-060.340097565906521E-060.289326682767923E-06
0.246339839008003E-060.209915135805267E-060.179026556164716E-06
0.152811965398301E-060.130546428570245E-060.111619948234418E-06
0.955188781871437E-070.818103967398102E-070.701295277336007E-07
0.601682841148725E-070.516665814427473E-070.444046276432357E-07
0.381965451733431E-070.328850224800596E-070.283368256951843E-07
0.244390297546646E-070.210958514925600E-070.182259868128046E-07
0.157603701741424E-070.136402881710522E-070.118157901405006E-07
0.102443481343909E-070.888972635861189E-080.772102666383718E-08
0.671188214223022E-080.583977535100464E-080.508546151916162E-08
0.443248022202122E-080.386674166352640E-080.337617592716298E-08
0.295043539531000E-080.258064209872337E-080.225917306559254E-08
0.197947781735142E-080.173592309182596E-080.152366063283552E-08
0.133851454261141E-080.117688522964591E-080.103566745012717E-08
0.912180324995803E-090.804107536815174E-090.709446191967067E-09
0.626463058084196E-090.553657087462410E-090.489727299535170E-09
0.433545236106349E-090.384131321285619E-090.340634557227264E-09
0.302315073115175E-090.268529114745419E-090.238716124395188E-09
0.212387611358362E-090.189117558543386E-090.168534146667302E-09
0.150312609946699E-090.134169064189295E-090.119855171105032E-09
0.107153521955498E-090.953528653442735E-100.844515928575716E-10
0.748671128226746E-100.664324452119367E-100.590027103883060E-10
0.524520910242784E-100.466712263128150E-100.415649751062056E-10
0.370504939654639E-100.330555844804686E-100.295172708334609E-10
0.263805744925234E-100.235974578135161E-100.211259124494884E-10
0.189291720550168E-100.169750317230425E-100.152352591661473E-10
0.136199546897857E-100.121272357853276E-100.108087054311932E-10
0.964303402676508E-110.861166158972294E-110.769842240153285E-11
0.688922184397683E-110.617175778692092E-110.553527998935063E-11
0.494868901214010E-110.441057748204310E-110.393734059693496E-11
0.352105189802007E-110.315479182043699E-110.283249955199762E-11
0.253884585505170E-110.227247781189642E-110.204010486659139E-11
0.183715216018470E-110.165374804424835E-110.148821071290672E-11
0.134348700877046E-110.121211405050223E-110.109209446339658E-11
0.984713949982558E-120.884238949867616E-120.788840447477913E-12
0.697005060844451E-120.607451006163630E-120.519471510104807E-12
0.432933042580580E-120.348483512089597E-120.265515379143300E-12
0.186617883054161E-120.115075653807392E-120.555517051310776E-13
0.103224892173529E-13-.199535130944516E-13-.346657186366479E-13
-.341881317081263E-13-.210286372775563E-130.287772861961467E-15
0.242928730789148E-130.462832382209476E-130.618742408562867E-13
0.682370484265581E-130.656689491968451E-130.567279422073782E-13
0.446887600388943E-130.325500483106434E-130.221197375264483E-13
0.139916122641521E-130.822387269275200E-140.445957156117410E-14
0.221446360265124E-140.100131861765788E-140.413305362200629E-15
0.164045685939688E-150.718289575912839E-160.393174719866784E-16
0.253022873456451E-160.170683557455975E-160.117374305613102E-16
0.262556716151750E-040.215711681699300E-040.177310747901516E-04
0.145817744303670E-040.119978294334556E-040.987677328836642E-05
0.813487160556024E-050.670367081967122E-050.552718730250525E-05
0.455961728260529E-050.376347044187397E-050.310804827417180E-05
0.256820308970761E-050.212332554095997E-050.175651829189576E-05
0.145392135950336E-050.120416108481578E-050.997899908612802E-06
0.827468369465616E-060.686564192954082E-060.570006142756700E-06
0.473532588172389E-060.393636598185599E-060.327430883022620E-06
0.272537135444916E-060.226995325471348E-060.189189319014361E-06
0.157785856508988E-060.131684469841912E-060.109976358912143E-06
0.919106096923934E-070.768664306683801E-070.643303249923554E-07
0.538773121118210E-070.451554733483705E-070.378732269326780E-07
0.317888454268526E-070.267018161600805E-070.224457171287279E-07
0.188823396099393E-070.158968368613553E-070.133937177279304E-07
0.112935362950666E-070.953015523837878E-080.804848224503731E-08
0.680259673512647E-080.575419874738305E-080.487132388169342E-08
0.412727808014865E-080.349975414311653E-080.297009856534636E-08
0.252270276962465E-080.214449734125716E-080.182453159336205E-08
0.155362386176096E-080.132407045846811E-080.112940330164044E-08
0.964187958492828E-090.823855261530915E-090.704560830649209E-09
0.603067804322905E-090.516648884265357E-090.443004461661912E-09
0.380194141591789E-090.326579436407526E-090.280775775874486E-09
0.241612293093422E-090.208098104564345E-090.179394017011515E-09
0.154788771946348E-090.133679086966642E-090.115552875701913E-09
0.999751307161753E-100.865760386863296E-100.750409680645674E-10
0.651020284144643E-100.565309498281770E-100.491330717791661E-10
0.427422650289806E-100.372166387488974E-100.324349088922249E-10
0.282933237799260E-100.245400003345027E-100.211604970370032E-10
0.182664699931294E-100.157855641458344E-100.136565632478519E-10
0.118276250371444E-100.102548033239968E-100.890080925614081E-11
0.773397213032314E-110.672736683448243E-110.585808054629133E-11
0.510659591374933E-110.445627175074194E-110.389290543733646E-11
0.340436383860794E-110.298027173319579E-110.261174855157849E-11
0.227793806870532E-110.197713955710055E-110.171817408415178E-11
0.149495853523092E-110.130233114485716E-110.113590697974567E-11
0.991956802073198E-120.867305416263082E-120.759246267801667E-12
0.661922768841603E-120.574666700558319E-120.499654517707777E-12
0.435093436532728E-120.379465137306351E-120.331481674854469E-12
0.288606449821240E-120.250455084571943E-120.217803618277642E-12
0.189823086209722E-120.165037754643773E-120.143154345588810E-12
0.124503672760060E-120.108085303865823E-120.936465924237354E-13
0.813277495863454E-130.704543760040300E-130.608246514950277E-13
0.522743372985230E-130.446345830732503E-130.377776460637749E-13
0.315896441703546E-130.260014960883535E-130.208518985592614E-13
0.161801428393050E-130.120490198271848E-130.859962825930331E-14
0.585834344093886E-140.378856244846928E-140.237745612059642E-14
0.160714242954855E-140.138910162259482E-140.156373984495896E-14
0.193792758784304E-140.233237065753469E-140.258986218021238E-14
0.260977613671818E-140.239059470012022E-140.200382936627208E-14
0.154690951986775E-140.111017574813227E-140.745571931668229E-15
0.466673232524818E-150.271459853513680E-150.145482868249125E-15
0.711161824953028E-160.313592045969654E-160.123446081075701E-16
0.445866336996764E-170.167817258046836E-170.810178823252922E-18
0.501745401195883E-180.336766145725659E-180.231486564308088E-18
0.306187583605830E-040.248246818565754E-040.201321877539207E-04
0.163309477805623E-040.132509481816588E-040.107547350498254E-04
0.873115614734700E-050.709030956842653E-050.575946580169391E-05
0.467977503655852E-050.380360803326279E-050.309240825472269E-05
0.251495664271026E-050.204596949687257E-050.166496529602619E-05
0.135534869690872E-050.110366994180480E-050.899025964697975E-06
0.732575985372751E-060.597149624417703E-060.486929800389017E-06
0.397196083835510E-060.324116936587129E-060.264581487280369E-06
0.216063288954635E-060.176509953072786E-060.144253724441207E-06
0.117939006577710E-060.964636103753342E-070.789311159289090E-07
0.646122357382237E-070.529134705530089E-070.433516748417078E-07
0.355334122796899E-070.291381947296020E-070.239048704910414E-07
0.196205670683765E-070.161117065423865E-070.132367029778899E-07
0.108800252595689E-070.894736863518956E-080.736172675598436E-08
0.606019530646149E-080.499137016401538E-080.411322884179250E-08
0.339140489932151E-080.279778197568123E-080.230934786712575E-08
0.190726024090635E-080.157608464055741E-080.130317279671822E-08
0.107815523167928E-080.892526998341441E-090.739309336335557E-09
0.612773231506214E-090.508213468692359E-090.421763885261296E-09
0.350246254391331E-090.291046628283540E-090.242014111340164E-09
0.201377961450125E-090.167679673152723E-090.139717312026018E-09
0.116499871144897E-090.972098292288730E-100.811724234213020E-10
0.678304214141460E-100.567233994500214E-100.474707136993365E-10
0.397575002963020E-100.333231599997762E-100.279518820422691E-10
0.234648423185984E-100.197137769517796E-100.165756861598415E-10
0.139484674414326E-100.117473131864808E-100.990173737030841E-11
0.835312019725819E-110.705267939753741E-110.595979314478526E-11
0.504061289985064E-110.423247850061707E-110.352736773082647E-11
0.294288489489311E-110.245791343876839E-110.205510844609968E-11
0.172021093909548E-110.144148881796373E-110.120928072027759E-11
0.101562358016197E-110.853948302860931E-120.718830910129273E-12
0.605788890822768E-120.511114416726250E-120.431737643942018E-12
0.365114584609673E-120.309135059609812E-120.262047075175023E-12
0.220792408621268E-120.184869302595579E-120.155010599033654E-12
0.130159463380300E-120.109448415078902E-120.921645657150295E-13
0.777213777856928E-130.656356972009734E-130.555090551861812E-13
0.466984686567429E-130.390726798750443E-130.327476689293221E-13
0.274932642550720E-130.231213765669521E-130.194780801078752E-13
0.163338081361022E-130.136324871393555E-130.114011570167719E-13
0.955476839835347E-140.797604209001210E-140.663152142379585E-14
0.552733336661814E-140.459197705032732E-140.380217938078890E-14
0.315716066922635E-140.261430938119454E-140.215823796656864E-14
0.177672686009173E-140.145759983723834E-140.119126731374077E-14
0.968650728334830E-150.782784631865313E-150.624022618687343E-15
0.489589367856625E-150.377098897430378E-150.286266716086059E-15
0.214307923215385E-150.157742292877365E-150.114530518314485E-15
0.836009823755329E-160.632569404949356E-160.510674000967167E-16
0.443419104050991E-160.403786220401771E-160.370951690500580E-16
0.331539915019961E-160.281605078056503E-160.224623434164393E-16
0.167525471109013E-160.117222873434134E-160.771815307483260E-17
0.475069228903192E-170.272169850169269E-170.143676268543256E-17
0.690498340796880E-180.297606627651667E-180.112718890727834E-18
0.376528907875501E-190.122006084572752E-190.501024642616612E-20
0.292589761327485E-200.194819920957450E-200.133826269709716E-20
0.183139305903492E-040.147342987664030E-040.118554906487660E-04
0.954008851742576E-050.767765796923238E-050.617944241985593E-05
0.497410208176401E-050.400429155615019E-050.322391079332257E-05
0.259589677486842E-050.209044943131685E-050.168360630155590E-05
0.135609729449257E-050.109242443768815E-050.880122356188513E-06
0.709163940697402E-060.571482662407486E-060.460588609723798E-06
0.371259833272390E-060.299294208212963E-060.241309931422029E-06
0.194585107478023E-060.156928753573651E-060.126577060408617E-06
0.102109956791210E-060.823839980271343E-070.664783794496190E-07
0.536515041423600E-070.433060382165670E-070.349607923137772E-07
0.282280936544906E-070.227955747259392E-070.184115150702597E-07
0.148730417425104E-070.120166299528061E-070.971045469028044E-08
0.784823200101630E-080.634425924486159E-080.512942047275879E-08
0.414796876041988E-080.335493408446426E-080.271403488815618E-08
0.219599526422797E-080.177718881341871E-080.143854563011223E-08
0.116467125279475E-080.943136384414714E-090.763904209998199E-09
0.618868595913161E-090.501481652930761E-090.406453329866779E-09
0.329509073774717E-090.267194305688561E-090.216716645752176E-09
0.175818581284570E-090.142674688743921E-090.115808662459375E-09
0.940263229521398E-100.763615189954603E-100.620324349439455E-10
0.504062963501583E-100.409708549879398E-100.333113472826817E-10
0.270918724087219E-100.220403397319614E-100.179362993283139E-10
0.146011016264919E-100.118899389676869E-100.968540799228596E-11
0.789230125532855E-110.643339255278659E-110.524602570605532E-11
0.427935309265904E-110.349209971359459E-110.285075241067676E-11
0.232809308752611E-110.190201032901176E-110.155453636950214E-11
0.127106650516521E-110.103972624417639E-110.850858115401170E-12
0.696605413279052E-120.565079595046963E-120.453952956436724E-12
0.364888681835421E-120.293470397464061E-120.236172187973048E-12
0.190177909808320E-120.153237376281329E-120.123551852058258E-12
0.996828528361060E-130.804794817036235E-130.650205140213354E-13
0.525682205891127E-130.425315363385014E-130.344366720360078E-13
0.279036558182649E-130.226276006696049E-130.183637397149251E-13
0.147800411676406E-130.117915369116540E-130.941685250979881E-14
0.752822043253218E-140.602477499705731E-140.482683141859366E-14
0.387139212508681E-140.310861503301398E-140.249903622496461E-14
0.199395862776487E-140.157834657717628E-140.125118951705258E-14
0.993327654809057E-150.789814060241947E-150.628976294316011E-15
0.497518466507506E-150.390727642494744E-150.307450620506941E-15
0.242398892564694E-150.189956272995629E-150.147907301314059E-15
0.115443654890569E-150.896227883103963E-160.691833732621352E-16
0.535614527821191E-160.412776045770918E-160.316572899091652E-16
0.241847150849023E-160.183991619305745E-160.139515908072405E-16
0.105402714824559E-160.793904265790331E-170.591722821366883E-17
0.436418718520586E-170.318439021146426E-170.231327214507293E-17
0.167343654168080E-170.119741598150014E-170.843607096140169E-18
0.587512112227129E-180.407950143720321E-180.285498263661558E-18
0.203932655961102E-180.148500284898327E-180.109894512957725E-18
0.820352933729520E-190.607691946880819E-190.438088027232716E-19
0.303043520766197E-190.200311652617793E-190.126132675853311E-19
0.748189648803581E-200.415144113790799E-200.212851902910631E-20
0.994176482488147E-210.415278068291617E-210.150756958467043E-21
0.466859426425960E-220.129073932155829E-220.422638935180048E-23
0.222429563857569E-230.145893908116401E-230.100094310299997E-23
