************************************************************************
* This file is part of OpenMolcas.                                     *
*                                                                      *
* OpenMolcas is free software; you can redistribute it and/or modify   *
* it under the terms of the GNU Lesser General Public License, v. 2.1. *
* OpenMolcas is distributed in the hope that it will be useful, but it *
* is provided "as is" and without any express or implied warranties.   *
* For more details see the full text of the license in the file        *
* LICENSE or in <http://www.gnu.org/licenses/>.                        *
************************************************************************
/Hf.60-mwb-opt..9s4p4d3f4g.7s4p4d3f2g.
Reference none
HF       (9s4p4d3f4g) -> [7s4p4d3f2g]

	72.000000 4
* S-type functions
    9 7
        14.648554
        7.267144
        3.712773
        1.945969
        1.042014
        0.567525
        0.312925
        0.173834
        0.096809
 -.477336796D+00 0.0 0.0 0.0 0.0 0.0 0.0
 .251087253D+01 0.0 0.0 0.0 0.0 0.0 0.0
 -.467963467D+01 0.0 0.0 0.0 0.0 0.0 0.0
 0.0 .153344832D+01 0.0 0.0 0.0 0.0 0.0
 0.0 0.0 .187214876D+01 0.0 0.0 0.0 0.0
 0.0 0.0 0.0 .344628507D+00 0.0 0.0 0.0
 0.0 0.0 0.0 0.0 .103039474D+00 0.0 0.0
 0.0 0.0 0.0 0.0 0.0 .111126650D+00 0.0
 0.0 0.0 0.0 0.0 0.0 0.0 .585840259D-01
* P-type functions
    4 4
        1.2750137
        .47774793
        .19363973
        .80683219E-01
 1.0 0.0 0.0 0.0
 0.0 1.0 0.0 0.0
 0.0 0.0 1.0 0.0
 0.0 0.0 0.0 1.0
* D-type functions
    4 4
        0.799454
        0.391438
        0.214183
        0.121972
 -.268118045D-01 0.0 0.0 0.0
 0.0 -.832601139D-02 0.0 0.0
 0.0 0.0 -.670735198D-02 0.0
 0.0 0.0 0.0 -.600537059D-02
* F-type functions
    3 3
        .95029816
        .36549929
        .14619972
 1.0 0.0 0.0
 0.0 1.0 0.0
 0.0 0.0 1.0
* G-type functions
    4 2
        1.536940
        0.684310
        0.321699
        0.154102
 .497479865D-01 0.0
 .409312012D-01 0.0
 .163401119D-01 0.0
 0.0 .464001113D-02

/Hg.60-mwb-opt..9s4p4d3f4g.7s4p3d3f2g.
Reference none
HG       (9s4p4d3f4g) -> [7s4p3d3f2g]

	80.000000 4
* S-type functions
    9 7
        39.504024
        19.783196
        9.907281
        4.961522
        2.484720
        1.244347
        0.623170
        0.312085
        0.156293
 .206933168D+00 0.0 0.0 0.0 0.0 0.0 0.0
 -.140003167D+01 0.0 0.0 0.0 0.0 0.0 0.0
 .538714842D+01 0.0 0.0 0.0 0.0 0.0 0.0
 0.0 -.101825228D+02 0.0 0.0 0.0 0.0 0.0
 0.0 0.0 .485155383D+01 0.0 0.0 0.0 0.0
 0.0 0.0 0.0 .300725453D+01 0.0 0.0 0.0
 0.0 0.0 0.0 0.0 .785707760D+00 0.0 0.0
 0.0 0.0 0.0 0.0 0.0 .368115465D+00 0.0
 0.0 0.0 0.0 0.0 0.0 0.0 .665297417D-01
* P-type functions
    4 4
        2.3093960
        .86533123
        .35073412
        .14613922
 .337082995D-01 0.0 0.0 0.0
 0.0 -.350206096D-01 0.0 0.0
 0.0 0.0 .180084277D-01 0.0
 0.0 0.0 0.0 .756905904D-02
* D-type functions
    4 3
        5.645905
        3.619236
        2.305641
        1.453713
 .441456326D-01 0.0 0.0
 -.162669599D+00 0.0 0.0
 0.0 .288745648D+00 0.0
 0.0 0.0 -.185426190D+00
* F-type functions
    3 3
        2.4052079
        .92507997
        .37003199
 -.217883245D-01 0.0 0.0
 0.0 .110036083D-01 0.0
 0.0 0.0 .143008054D-01
* G-type functions
    4 2
        2.58861
        2.58861
        .881119
        .586093
 -.122503625D-01 0.0
 -.122480769D-01 0.0
 -.720936125D-02 0.0
 0.0 .710681801D-02

/Ta.60-mwb-opt..8s4p4d3f4g.6s4p3d3f2g.
Reference none
TA       (8s4p4d3f4g) -> [6s4p3d3f2g]

	73.000000 4
* S-type functions
    8 6
        15.521335
        7.555743
        3.699576
        1.820141
        0.898838
        0.445062
        0.220729
        0.109530
 -.493702989D+00 0.0 0.0 0.0 0.0 0.0
 .259256574D+01 0.0 0.0 0.0 0.0 0.0
 -.523168657D+01 0.0 0.0 0.0 0.0 0.0
 0.0 .262393615D+01 0.0 0.0 0.0 0.0
 0.0 0.0 .157711902D+01 0.0 0.0 0.0
 0.0 0.0 0.0 .200789711D+00 0.0 0.0
 0.0 0.0 0.0 0.0 .185974307D+00 0.0
 0.0 0.0 0.0 0.0 0.0 .765184411D-01
* P-type functions
    4 4
        1.5024958
        0.5629855
        0.2281880
        0.09507835
 1.0 0.0 0.0 0.0
 0.0 1.0 0.0 0.0
 0.0 0.0 1.0 0.0
 0.0 0.0 0.0 1.0
* D-type functions
    4 3
        1.337006
        0.599535
        0.280427
        0.133078
 .190072032D-01 0.0 0.0
 -.155214344D-01 0.0 0.0
 0.0 -.138946250D-01 0.0
 0.0 0.0 -.895263676D-02
* F-type functions
    3 3
        1.1428211
        0.4395465
        0.1758186
 1.0 0.0 0.0
 0.0 1.0 0.0
 0.0 0.0 1.0
* G-type functions
    4 2
        1.630421
        0.747093
        0.349040
        0.164143
 .100251139D+00 0.0
 .737448223D-01 0.0
 .276219913D-01 0.0
 0.0 .546316580D-02

