************************************************************************
* This file is part of OpenMolcas.                                     *
*                                                                      *
* OpenMolcas is free software; you can redistribute it and/or modify   *
* it under the terms of the GNU Lesser General Public License, v. 2.1. *
* OpenMolcas is distributed in the hope that it will be useful, but it *
* is provided "as is" and without any express or implied warranties.   *
* For more details see the full text of the license in the file        *
* LICENSE or in <http://www.gnu.org/licenses/>.                        *
************************************************************************

#Hamiltonian NRH
#Nucleus UNK
#Contraction SEG
#AllElectron AE_

************************************************************************
* This file has been generated from TURBOMOLE basis set data:          *
*   https://cosmologic-services.de/basis-sets/basissets.php            *
************************************************************************

/H.def-TZVP.Eichkorn.4s2p.3s2p.
K. Eichkorn, F. Weigend, O. Treutler, R. Ahlrichs. Theor. Chem. Acc. 97 (1997) 119-124. doi:10.1007/s002140050244
HYDROGEN (4s,2p) -> [3s,2p]
     1.0   1
* s-type functions
    4    3
9.308130000000000000
2.306718000000000000
0.752012000000000000
0.273978000000000000
  0.034466183000  0.000000000000  0.000000000000
  0.122533796000  0.000000000000  0.000000000000
  0.000000000000  0.182500211000  0.000000000000
  0.000000000000  0.000000000000  0.022150547900
* p-type functions
    2    2
2.032704000000000000
0.790252000000000000
  0.029513659100  0.000000000000
  0.000000000000  0.032755872800

/Li.def-TZVP.Eichkorn.9s2p2d1f.7s2p2d1f.
K. Eichkorn, F. Weigend, O. Treutler, R. Ahlrichs. Theor. Chem. Acc. 97 (1997) 119-124. doi:10.1007/s002140050244
LITHIUM (9s,2p,2d,1f) -> [7s,2p,2d,1f]
     3.0   3
* s-type functions
    9    7
1.7328970900000000e2
4.7834436000000000e1
1.4753627000000000e1
5.052147000000000000
1.901550000000000000
0.775515000000000000
0.336355000000000000
0.151659000000000000
0.069296000000000000
  0.080148746500  0.000000000000  0.000000000000  0.000000000000  0.000000000000  0.000000000000  0.000000000000
  0.252205653000  0.000000000000  0.000000000000  0.000000000000  0.000000000000  0.000000000000  0.000000000000
  0.665209033000  0.000000000000  0.000000000000  0.000000000000  0.000000000000  0.000000000000  0.000000000000
  0.000000000000  0.776580777000  0.000000000000  0.000000000000  0.000000000000  0.000000000000  0.000000000000
  0.000000000000  0.000000000000  0.271847552000  0.000000000000  0.000000000000  0.000000000000  0.000000000000
  0.000000000000  0.000000000000  0.000000000000 -0.013621380400  0.000000000000  0.000000000000  0.000000000000
  0.000000000000  0.000000000000  0.000000000000  0.000000000000 -0.009158093950  0.000000000000  0.000000000000
  0.000000000000  0.000000000000  0.000000000000  0.000000000000  0.000000000000  0.035823789000  0.000000000000
  0.000000000000  0.000000000000  0.000000000000  0.000000000000  0.000000000000  0.000000000000  0.019364541800
* p-type functions
    2    2
0.377864000000000000
0.159554000000000000
  0.006194127660  0.000000000000
  0.000000000000 -0.016714519700
* d-type functions
    2    2
0.560493000000000000
0.237378000000000000
  8.469553060e-5  0.000000000000
  0.000000000000  0.001305043430
* f-type functions
    1    1
0.468426000000000000
 -0.001734188930

/Be.def-TZVP.Eichkorn.9s2p2d1f.7s2p2d1f.
K. Eichkorn, F. Weigend, O. Treutler, R. Ahlrichs. Theor. Chem. Acc. 97 (1997) 119-124. doi:10.1007/s002140050244
BERYLLIUM (9s,2p,2d,1f) -> [7s,2p,2d,1f]
     4.0   3
* s-type functions
    9    7
2.6861624200000000e2
7.6015198000000000e1
2.3916298000000000e1
8.310854000000000000
3.157956000000000000
1.294040000000000000
0.561718000000000000
0.252830000000000000
0.115217000000000000
  0.155834234000  0.000000000000  0.000000000000  0.000000000000  0.000000000000  0.000000000000  0.000000000000
  0.462997918000  0.000000000000  0.000000000000  0.000000000000  0.000000000000  0.000000000000  0.000000000000
  1.167841410000  0.000000000000  0.000000000000  0.000000000000  0.000000000000  0.000000000000  0.000000000000
  0.000000000000  1.244059150000  0.000000000000  0.000000000000  0.000000000000  0.000000000000  0.000000000000
  0.000000000000  0.000000000000  0.298696650000  0.000000000000  0.000000000000  0.000000000000  0.000000000000
  0.000000000000  0.000000000000  0.000000000000 -0.080963137600  0.000000000000  0.000000000000  0.000000000000
  0.000000000000  0.000000000000  0.000000000000  0.000000000000  0.035797988200  0.000000000000  0.000000000000
  0.000000000000  0.000000000000  0.000000000000  0.000000000000  0.000000000000  0.125027779000  0.000000000000
  0.000000000000  0.000000000000  0.000000000000  0.000000000000  0.000000000000  0.000000000000  0.031672194200
* p-type functions
    2    2
3.734251000000000000
1.113026000000000000
 -0.033555930700  0.000000000000
  0.000000000000  0.010778400900
* d-type functions
    2    2
0.918714000000000000
0.355682000000000000
 -0.004158905870  0.000000000000
  0.000000000000 -0.030892777100
* f-type functions
    1    1
0.395370000000000000
  1.000000000000

/B.def-TZVP.Eichkorn.9s3p3d1f.7s3p3d1f.
K. Eichkorn, F. Weigend, O. Treutler, R. Ahlrichs. Theor. Chem. Acc. 97 (1997) 119-124. doi:10.1007/s002140050244
BORON (9s,3p,3d,1f) -> [7s,3p,3d,1f]
     5.0   3
* s-type functions
    9    7
3.9203445800000000e2
1.1749724000000000e2
3.8124596000000000e1
1.3300122000000000e1
4.943892000000000000
1.936417000000000000
0.788705000000000000
0.329117000000000000
0.138468000000000000
  0.245931009000  0.000000000000  0.000000000000  0.000000000000  0.000000000000  0.000000000000  0.000000000000
  0.643032421000  0.000000000000  0.000000000000  0.000000000000  0.000000000000  0.000000000000  0.000000000000
  1.687359330000  0.000000000000  0.000000000000  0.000000000000  0.000000000000  0.000000000000  0.000000000000
  0.000000000000  1.802167740000  0.000000000000  0.000000000000  0.000000000000  0.000000000000  0.000000000000
  0.000000000000  0.000000000000  0.384960252000  0.000000000000  0.000000000000  0.000000000000  0.000000000000
  0.000000000000  0.000000000000  0.000000000000 -0.156858914000  0.000000000000  0.000000000000  0.000000000000
  0.000000000000  0.000000000000  0.000000000000  0.000000000000  0.215152058000  0.000000000000  0.000000000000
  0.000000000000  0.000000000000  0.000000000000  0.000000000000  0.000000000000  0.203050802000  0.000000000000
  0.000000000000  0.000000000000  0.000000000000  0.000000000000  0.000000000000  0.000000000000  0.028415103700
* p-type functions
    3    3
1.222976000000000000
0.494853000000000000
0.208793000000000000
 -0.017675020900  0.000000000000  0.000000000000
  0.000000000000 -0.007723458340  0.000000000000
  0.000000000000  0.000000000000 -0.043175216200
* d-type functions
    3    3
2.401898000000000000
0.764497000000000000
0.257494000000000000
  0.034346756000  0.000000000000  0.000000000000
  0.000000000000  0.056173626900  0.000000000000
  0.000000000000  0.000000000000  0.021633955200
* f-type functions
    1    1
0.913067000000000000
  0.027924652600

/C.def-TZVP.Eichkorn.9s3p3d1f.7s3p3d1f.
K. Eichkorn, F. Weigend, O. Treutler, R. Ahlrichs. Theor. Chem. Acc. 97 (1997) 119-124. doi:10.1007/s002140050244
CARBON (9s,3p,3d,1f) -> [7s,3p,3d,1f]
     6.0   3
* s-type functions
    9    7
5.9155392700000000e2
1.7211794000000000e2
5.4799259000000000e1
1.8959094000000000e1
7.059930000000000000
2.794849000000000000
1.158634000000000000
0.494324000000000000
0.212969000000000000
  0.315820195000  0.000000000000  0.000000000000  0.000000000000  0.000000000000  0.000000000000  0.000000000000
  0.875038628000  0.000000000000  0.000000000000  0.000000000000  0.000000000000  0.000000000000  0.000000000000
  2.307605240000  0.000000000000  0.000000000000  0.000000000000  0.000000000000  0.000000000000  0.000000000000
  0.000000000000  2.417972150000  0.000000000000  0.000000000000  0.000000000000  0.000000000000  0.000000000000
  0.000000000000  0.000000000000  0.413457616000  0.000000000000  0.000000000000  0.000000000000  0.000000000000
  0.000000000000  0.000000000000  0.000000000000 -0.190009544000  0.000000000000  0.000000000000  0.000000000000
  0.000000000000  0.000000000000  0.000000000000  0.000000000000  0.377071048000  0.000000000000  0.000000000000
  0.000000000000  0.000000000000  0.000000000000  0.000000000000  0.000000000000  0.347917878000  0.000000000000
  0.000000000000  0.000000000000  0.000000000000  0.000000000000  0.000000000000  0.000000000000  0.054740772400
* p-type functions
    3    3
0.327847357953757000
0.786833659089200000
1.971018316000000000
  0.053190985100  0.000000000000  0.000000000000
  0.000000000000  0.001344196880  0.000000000000
  0.000000000000  0.000000000000  0.022198600500
* d-type functions
    3    3
4.013301000000000000
1.247505000000000000
0.408148000000000000
  0.052468412700  0.000000000000  0.000000000000
  0.000000000000  0.080267825200  0.000000000000
  0.000000000000  0.000000000000  0.029636167300
* f-type functions
    1    1
0.900000000000000000
  1.000000000000

/N.def-TZVP.Eichkorn.9s3p3d1f.7s3p3d1f.
K. Eichkorn, F. Weigend, O. Treutler, R. Ahlrichs. Theor. Chem. Acc. 97 (1997) 119-124. doi:10.1007/s002140050244
NITROGEN (9s,3p,3d,1f) -> [7s,3p,3d,1f]
     7.0   3
* s-type functions
    9    7
7.9107693500000000e2
2.2945018400000000e2
7.2886960000000000e1
2.5181596000000000e1
9.371697000000000000
3.710655000000000000
1.539463000000000000
0.657553000000000000
0.283654000000000000
  0.415675056000  0.000000000000  0.000000000000  0.000000000000  0.000000000000  0.000000000000  0.000000000000
  1.147506940000  0.000000000000  0.000000000000  0.000000000000  0.000000000000  0.000000000000  0.000000000000
  3.019357670000  0.000000000000  0.000000000000  0.000000000000  0.000000000000  0.000000000000  0.000000000000
  0.000000000000  3.032330410000  0.000000000000  0.000000000000  0.000000000000  0.000000000000  0.000000000000
  0.000000000000  0.000000000000  0.387849486000  0.000000000000  0.000000000000  0.000000000000  0.000000000000
  0.000000000000  0.000000000000  0.000000000000 -0.182929310000  0.000000000000  0.000000000000  0.000000000000
  0.000000000000  0.000000000000  0.000000000000  0.000000000000  0.652389391000  0.000000000000  0.000000000000
  0.000000000000  0.000000000000  0.000000000000  0.000000000000  0.000000000000  0.499910671000  0.000000000000
  0.000000000000  0.000000000000  0.000000000000  0.000000000000  0.000000000000  0.000000000000  0.073868788000
* p-type functions
    3    3
0.470739194069360000
1.129774065766000000
2.830084034700000000
  0.067405747100  0.000000000000  0.000000000000
  0.000000000000 -0.022505550600  0.000000000000
  0.000000000000  0.000000000000  0.035545572100
* d-type functions
    3    3
5.832986500000000000
1.732686500000000000
0.545242500000000000
  0.041604040300  0.000000000000  0.000000000000
  0.000000000000  0.011059698000  0.000000000000
  0.000000000000  0.000000000000  0.048407961900
* f-type functions
    1    1
1.826480000000000000
  1.000000000000

/O.def-TZVP.Eichkorn.9s3p3d1f.7s3p3d1f.
K. Eichkorn, F. Weigend, O. Treutler, R. Ahlrichs. Theor. Chem. Acc. 97 (1997) 119-124. doi:10.1007/s002140050244
OXYGEN (9s,3p,3d,1f) -> [7s,3p,3d,1f]
     8.0   3
* s-type functions
    9    7
9.5784325300000000e2
2.8196742500000000e2
9.0199832000000000e1
3.1138299000000000e1
1.1493732000000000e1
4.484049000000000000
1.823504000000000000
0.760903000000000000
0.320292000000000000
  0.562496240000  0.000000000000  0.000000000000  0.000000000000  0.000000000000  0.000000000000  0.000000000000
  1.491089850000  0.000000000000  0.000000000000  0.000000000000  0.000000000000  0.000000000000  0.000000000000
  3.865477330000  0.000000000000  0.000000000000  0.000000000000  0.000000000000  0.000000000000  0.000000000000
  0.000000000000  3.605777250000  0.000000000000  0.000000000000  0.000000000000  0.000000000000  0.000000000000
  0.000000000000  0.000000000000  0.230058581000  0.000000000000  0.000000000000  0.000000000000  0.000000000000
  0.000000000000  0.000000000000  0.000000000000 -0.050157691000  0.000000000000  0.000000000000  0.000000000000
  0.000000000000  0.000000000000  0.000000000000  0.000000000000  1.050704630000  0.000000000000  0.000000000000
  0.000000000000  0.000000000000  0.000000000000  0.000000000000  0.000000000000  0.585654881000  0.000000000000
  0.000000000000  0.000000000000  0.000000000000  0.000000000000  0.000000000000  0.000000000000  0.074991295000
* p-type functions
    3    3
0.614708862947970000
1.475301271075144500
3.695629684043237000
 -0.085578439300  0.000000000000  0.000000000000
  0.000000000000  0.041799959400  0.000000000000
  0.000000000000  0.000000000000 -0.058551078600
* d-type functions
    3    3
7.652672000000000000
2.217868000000000000
0.682337000000000000
  0.091068726800  0.000000000000  0.000000000000
  0.000000000000  0.111631339000  0.000000000000
  0.000000000000  0.000000000000  0.046006656800
* f-type functions
    1    1
2.191780821917800000
  1.000000000000

/F.def-TZVP.Eichkorn.9s3p4d1f.7s3p4d1f.
K. Eichkorn, F. Weigend, O. Treutler, R. Ahlrichs. Theor. Chem. Acc. 97 (1997) 119-124. doi:10.1007/s002140050244
FLUORINE (9s,3p,4d,1f) -> [7s,3p,4d,1f]
     9.0   3
* s-type functions
    9    7
1.1567023140000000e3
3.4504030200000000e2
1.1133205800000000e2
3.8590234000000000e1
1.4241466000000000e1
5.534132000000000000
2.235096000000000000
0.924514000000000000
0.385516000000000000
  0.714311861000  0.000000000000  0.000000000000  0.000000000000  0.000000000000  0.000000000000  0.000000000000
  1.845541950000  0.000000000000  0.000000000000  0.000000000000  0.000000000000  0.000000000000  0.000000000000
  4.710952700000  0.000000000000  0.000000000000  0.000000000000  0.000000000000  0.000000000000  0.000000000000
  0.000000000000  4.213295150000  0.000000000000  0.000000000000  0.000000000000  0.000000000000  0.000000000000
  0.000000000000  0.000000000000  0.117722220000  0.000000000000  0.000000000000  0.000000000000  0.000000000000
  0.000000000000  0.000000000000  0.000000000000  0.158947018000  0.000000000000  0.000000000000  0.000000000000
  0.000000000000  0.000000000000  0.000000000000  0.000000000000  1.496376820000  0.000000000000  0.000000000000
  0.000000000000  0.000000000000  0.000000000000  0.000000000000  0.000000000000  0.680567498000  0.000000000000
  0.000000000000  0.000000000000  0.000000000000  0.000000000000  0.000000000000  0.000000000000  0.112978975000
* p-type functions
    3    3
3.126934193270500000
1.267401991435838000
0.528084163098265900
  1.000000000000  0.000000000000  0.000000000000
  0.000000000000  1.000000000000  0.000000000000
  0.000000000000  0.000000000000  1.000000000000
* d-type functions
    4    4
2.3185570000000000e1
6.682483000000000000
2.167677000000000000
0.733849000000000000
 -0.041064211800  0.000000000000  0.000000000000  0.000000000000
  0.000000000000 -0.133270131000  0.000000000000  0.000000000000
  0.000000000000  0.000000000000 -0.123502519000  0.000000000000
  0.000000000000  0.000000000000  0.000000000000 -0.031950391400
* f-type functions
    1    1
2.557077625000000000
  1.000000000000

/Na.def-TZVP.Eichkorn.12s4p4d1f.5s2p2d1f.
K. Eichkorn, F. Weigend, O. Treutler, R. Ahlrichs. Theor. Chem. Acc. 97 (1997) 119-124. doi:10.1007/s002140050244
SODIUM (12s,4p,4d,1f) -> [5s,2p,2d,1f]
    11.0   3
* s-type functions
   12    5
1.8225968560000000e3
6.1483375600000000e2
2.1682363800000000e2
7.9701175000000000e1
3.0433939000000000e1
1.2025685000000000e1
4.896024000000000000
2.044068000000000000
0.870628000000000000
0.376255000000000000
0.164045000000000000
0.071735000000000000
  0.877088260000  0.000000000000  0.000000000000  0.000000000000  0.000000000000
  1.874077830000  0.000000000000  0.000000000000  0.000000000000  0.000000000000
  5.134946270000  0.000000000000  0.000000000000  0.000000000000  0.000000000000
  6.503210660000  0.000000000000  0.000000000000  0.000000000000  0.000000000000
  1.679783370000  0.000000000000  0.000000000000  0.000000000000  0.000000000000
 -0.539199108000  0.000000000000  0.000000000000  0.000000000000  0.000000000000
  2.211573290000  0.000000000000  0.000000000000  0.000000000000  0.000000000000
  1.903233480000  0.000000000000  0.000000000000  0.000000000000  0.000000000000
  0.000000000000  0.282946000000  0.000000000000  0.000000000000  0.000000000000
  0.000000000000  0.000000000000  0.001719879260  0.000000000000  0.000000000000
  0.000000000000  0.000000000000  0.000000000000  0.007216839990  0.000000000000
  0.000000000000  0.000000000000  0.000000000000  0.000000000000  0.033491180900
* p-type functions
    4    2
0.287042000000000000
0.126363000000000000
0.066867000000000000
0.037939000000000000
  0.006456030060  0.000000000000
 -0.009737806140  0.000000000000
 -0.014479558700  0.000000000000
  0.000000000000  0.001918200800
* d-type functions
    4    2
0.327481000000000000
0.094458000000000000
0.028478000000000000
0.008717000000000000
 -0.000594723490  0.000000000000
  0.004141066350  0.000000000000
 -0.000458357566  0.000000000000
  0.000000000000  3.717136330e-5
* f-type functions
    1    1
0.134953000000000000
 -0.000408900706

/Mg.def-TZVP.Eichkorn.12s4p4d1f.5s2p2d1f.
K. Eichkorn, F. Weigend, O. Treutler, R. Ahlrichs. Theor. Chem. Acc. 97 (1997) 119-124. doi:10.1007/s002140050244
MAGNESIUM (12s,4p,4d,1f) -> [5s,2p,2d,1f]
    12.0   3
* s-type functions
   12    5
2.3229252220000000e3
7.8020526000000000e2
2.7540661000000000e2
1.0186220400000000e2
3.9333382000000000e1
1.5790763000000000e1
6.559510000000000000
2.804520000000000000
1.226983000000000000
0.545883000000000000
0.245351000000000000
0.110653000000000000
  0.930467494000  0.000000000000  0.000000000000  0.000000000000  0.000000000000
  2.029070330000  0.000000000000  0.000000000000  0.000000000000  0.000000000000
  5.625098440000  0.000000000000  0.000000000000  0.000000000000  0.000000000000
  7.524979420000  0.000000000000  0.000000000000  0.000000000000  0.000000000000
  2.356899670000  0.000000000000  0.000000000000  0.000000000000  0.000000000000
 -0.815477491000  0.000000000000  0.000000000000  0.000000000000  0.000000000000
  2.565443600000  0.000000000000  0.000000000000  0.000000000000  0.000000000000
  2.549403720000  0.000000000000  0.000000000000  0.000000000000  0.000000000000
  0.000000000000  0.360624290000  0.000000000000  0.000000000000  0.000000000000
  0.000000000000  0.000000000000 -0.042556519600  0.000000000000  0.000000000000
  0.000000000000  0.000000000000  0.000000000000  0.076364003400  0.000000000000
  0.000000000000  0.000000000000  0.000000000000  0.000000000000  0.072513683200
* p-type functions
    4    2
2.0153381000000000e1
3.961152000000000000
0.978622000000000000
0.264422000000000000
  0.003029715710  0.000000000000
  0.021789893100  0.000000000000
 -0.025601869800  0.000000000000
  0.000000000000  0.032606397900
* d-type functions
    4    2
4.9367933000000000e1
7.305662000000000000
1.348457000000000000
0.271252000000000000
 -0.000476021169  0.000000000000
  0.001440965470  0.000000000000
 -0.005762804910  0.000000000000
  0.000000000000  0.014182152700
* f-type functions
    1    1
0.246037000000000000
  0.003849395670

/Al.def-TZVP.Eichkorn.12s4p5d1f.5s3p2d1f.
K. Eichkorn, F. Weigend, O. Treutler, R. Ahlrichs. Theor. Chem. Acc. 97 (1997) 119-124. doi:10.1007/s002140050244
ALUMINIUM (12s,4p,5d,1f) -> [5s,3p,2d,1f]
    13.0   3
* s-type functions
   12    5
2.8381287940000000e3
1.0555052580000000e3
4.0089567200000000e2
1.5522047900000000e2
6.1145855000000000e1
2.4456357000000000e1
9.910292000000000000
4.059531000000000000
1.677074000000000000
0.697078000000000000
0.290810000000000000
0.121471000000000000
  0.989014662000  0.000000000000  0.000000000000  0.000000000000  0.000000000000
  1.740067120000  0.000000000000  0.000000000000  0.000000000000  0.000000000000
  5.125812860000  0.000000000000  0.000000000000  0.000000000000  0.000000000000
  8.242414560000  0.000000000000  0.000000000000  0.000000000000  0.000000000000
  4.865526320000  0.000000000000  0.000000000000  0.000000000000  0.000000000000
 -1.093540000000  0.000000000000  0.000000000000  0.000000000000  0.000000000000
  2.235160800000  0.000000000000  0.000000000000  0.000000000000  0.000000000000
  3.869393840000  0.000000000000  0.000000000000  0.000000000000  0.000000000000
  0.000000000000  0.537999440000  0.000000000000  0.000000000000  0.000000000000
  0.000000000000  0.000000000000 -0.104401896000  0.000000000000  0.000000000000
  0.000000000000  0.000000000000  0.000000000000  0.204070572000  0.000000000000
  0.000000000000  0.000000000000  0.000000000000  0.000000000000  0.082140889600
* p-type functions
    4    3
0.934868000000000000
0.345754000000000000
0.138538000000000000
0.057097000000000000
 -0.003615925380  0.000000000000  0.000000000000
 -0.007220399410  0.000000000000  0.000000000000
  0.000000000000 -0.034681586900  0.000000000000
  0.000000000000  0.000000000000 -0.000216465439
* d-type functions
    5    2
1.5369612000000000e1
4.052294000000000000
1.241444000000000000
0.421258000000000000
0.148264000000000000
  0.018507976900  0.000000000000
  0.000294448103  0.000000000000
 -0.008995718840  0.000000000000
  0.032156055500  0.000000000000
  0.000000000000  0.021485599100
* f-type functions
    1    1
0.500348000000000000
  0.019574133400

/Si.def-TZVP.Eichkorn.12s6p5d1f1g.5s3p2d1f1g.
K. Eichkorn, F. Weigend, O. Treutler, R. Ahlrichs. Theor. Chem. Acc. 97 (1997) 119-124. doi:10.1007/s002140050244
SILICON (12s,6p,5d,1f,1g) -> [5s,3p,2d,1f,1g]
    14.0   4
* s-type functions
   12    5
2.6110442760000000e3
7.7810695400000000e2
2.5133454900000000e2
8.7771603000000000e1
3.3016055000000000e1
1.3308963000000000e1
5.711106000000000000
2.587334000000000000
1.225272000000000000
0.599657000000000000
0.299487000000000000
0.150601000000000000
  1.564883550000  0.000000000000  0.000000000000  0.000000000000  0.000000000000
  4.011709270000  0.000000000000  0.000000000000  0.000000000000  0.000000000000
  9.918720110000  0.000000000000  0.000000000000  0.000000000000  0.000000000000
  7.695894540000  0.000000000000  0.000000000000  0.000000000000  0.000000000000
 -0.835052158000  0.000000000000  0.000000000000  0.000000000000  0.000000000000
  1.742250930000  0.000000000000  0.000000000000  0.000000000000  0.000000000000
  4.756832710000  0.000000000000  0.000000000000  0.000000000000  0.000000000000
  1.247641690000  0.000000000000  0.000000000000  0.000000000000  0.000000000000
  0.000000000000 -0.325623881000  0.000000000000  0.000000000000  0.000000000000
  0.000000000000  0.000000000000  0.179143159000  0.000000000000  0.000000000000
  0.000000000000  0.000000000000  0.000000000000  0.246192137000  0.000000000000
  0.000000000000  0.000000000000  0.000000000000  0.000000000000  0.094501321100
* p-type functions
    6    3
2.4371195229800000e1
8.265424738800000000
3.051580863480000000
1.202762727720000000
0.494092669830000000
0.205871945766000000
 -0.021777484000  0.000000000000  0.000000000000
  0.089232320800  0.000000000000  0.000000000000
 -0.083873206900  0.000000000000  0.000000000000
  0.080710819500  0.000000000000  0.000000000000
  0.000000000000  1.000000000000  0.000000000000
  0.000000000000  0.000000000000  1.000000000000
* d-type functions
    5    2
1.6833774000000000e1
5.060871000000000000
1.676395000000000000
0.591428000000000000
0.213280000000000000
 -0.027586368200  0.000000000000
  0.000939371388  0.000000000000
  0.014697217600  0.000000000000
 -0.047736578500  0.000000000000
  0.000000000000 -0.025546889600
* f-type functions
    1    1
0.639269406390000000
  1.000000000000
* g-type functions
    1    1
0.700000000000000000
  1.000000000000

/P.def-TZVP.Eichkorn.12s6p5d1f1g.5s3p2d1f1g.
K. Eichkorn, F. Weigend, O. Treutler, R. Ahlrichs. Theor. Chem. Acc. 97 (1997) 119-124. doi:10.1007/s002140050244
PHOSPHORUS (12s,6p,5d,1f,1g) -> [5s,3p,2d,1f,1g]
    15.0   4
* s-type functions
   12    5
3.0803746280000000e3
9.1343425600000000e2
2.9467914500000000e2
1.0318237700000000e2
3.9073261000000000e1
1.5920552000000000e1
6.932594000000000000
3.198606000000000000
1.547486000000000000
0.775586000000000000
0.397285000000000000
0.205011000000000000
  1.690718160000  0.000000000000  0.000000000000  0.000000000000  0.000000000000
  4.409109220000  0.000000000000  0.000000000000  0.000000000000  0.000000000000
 10.946069000000  0.000000000000  0.000000000000  0.000000000000  0.000000000000
  8.716061710000  0.000000000000  0.000000000000  0.000000000000  0.000000000000
 -0.941456442000  0.000000000000  0.000000000000  0.000000000000  0.000000000000
  1.939184100000  0.000000000000  0.000000000000  0.000000000000  0.000000000000
  5.618818630000  0.000000000000  0.000000000000  0.000000000000  0.000000000000
  1.501045350000  0.000000000000  0.000000000000  0.000000000000  0.000000000000
  0.000000000000 -0.596480525000  0.000000000000  0.000000000000  0.000000000000
  0.000000000000  0.000000000000  0.321960638000  0.000000000000  0.000000000000
  0.000000000000  0.000000000000  0.000000000000  0.357202568000  0.000000000000
  0.000000000000  0.000000000000  0.000000000000  0.000000000000  0.160557230000
* p-type functions
    6    3
3.3055549408000000e1
1.1210699896000000e1
4.138971480600000000
1.631351371800000000
0.670156080000000000
0.279231700000000000
 -0.031224791600  0.000000000000  0.000000000000
  0.090923101700  0.000000000000  0.000000000000
 -0.082031955700  0.000000000000  0.000000000000
  0.075609039600  0.000000000000  0.000000000000
  0.000000000000 -0.039123894600  0.000000000000
  0.000000000000  0.000000000000  0.045439134500
* d-type functions
    5    2
2.2774700000000000e1
6.843735500000000000
2.263472500000000000
0.796719500000000000
0.286576500000000000
  0.014418380100  0.000000000000
 -0.000912741672  0.000000000000
 -0.003839208120  0.000000000000
  0.014066533900  0.000000000000
  0.000000000000  0.014913932500
* f-type functions
    1    1
0.821917808210000000
  1.000000000000
* g-type functions
    1    1
0.900000000000000000
  1.000000000000

/S.def-TZVP.Eichkorn.12s6p5d1f1g.5s3p2d1f1g.
K. Eichkorn, F. Weigend, O. Treutler, R. Ahlrichs. Theor. Chem. Acc. 97 (1997) 119-124. doi:10.1007/s002140050244
SULFUR (12s,6p,5d,1f,1g) -> [5s,3p,2d,1f,1g]
    16.0   4
* s-type functions
   12    5
3.6129376860000000e3
1.0596514190000000e3
3.3929484500000000e2
1.1835323600000000e2
4.4819730000000000e1
1.8333761000000000e1
8.045309000000000000
3.754008000000000000
1.842377000000000000
0.938931000000000000
0.489798000000000000
0.257531000000000000
  1.812848590000  0.000000000000  0.000000000000  0.000000000000  0.000000000000
  4.848050750000  0.000000000000  0.000000000000  0.000000000000  0.000000000000
 12.116656500000  0.000000000000  0.000000000000  0.000000000000  0.000000000000
  9.703994740000  0.000000000000  0.000000000000  0.000000000000  0.000000000000
 -1.163964530000  0.000000000000  0.000000000000  0.000000000000  0.000000000000
  2.396814320000  0.000000000000  0.000000000000  0.000000000000  0.000000000000
  6.538239160000  0.000000000000  0.000000000000  0.000000000000  0.000000000000
  1.554187340000  0.000000000000  0.000000000000  0.000000000000  0.000000000000
  0.000000000000 -0.951752048000  0.000000000000  0.000000000000  0.000000000000
  0.000000000000  0.000000000000  0.625328058000  0.000000000000  0.000000000000
  0.000000000000  0.000000000000  0.000000000000  0.404590133000  0.000000000000
  0.000000000000  0.000000000000  0.000000000000  0.000000000000  0.247751770000
* p-type functions
    6    3
4.1741870968114360e1
1.4156642285697700e1
5.226608438812460000
2.060037109892300000
0.846259376129472000
0.352608073387280000
 -0.033273212500  0.000000000000  0.000000000000
  0.088869275000  0.000000000000  0.000000000000
 -0.075237373700  0.000000000000  0.000000000000
  0.071588180500  0.000000000000  0.000000000000
  0.000000000000 -0.038250182700  0.000000000000
  0.000000000000  0.000000000000  0.025997174400
* d-type functions
    5    2
2.8715626000000000e1
8.626600000000000000
2.850550000000000000
1.002011000000000000
0.359873000000000000
  0.043105065900  0.000000000000
  0.003700101250  0.000000000000
 -0.026034919400  0.000000000000
  0.072264044200  0.000000000000
  0.000000000000  0.037521588200
* f-type functions
    1    1
1.004566210000000000
  1.000000000000
* g-type functions
    1    1
1.100000000000000000
  1.000000000000

/Cl.def-TZVP.Eichkorn.12s6p5d1f1g.5s3p2d1f1g.
K. Eichkorn, F. Weigend, O. Treutler, R. Ahlrichs. Theor. Chem. Acc. 97 (1997) 119-124. doi:10.1007/s002140050244
CHLORINE (12s,6p,5d,1f,1g) -> [5s,3p,2d,1f,1g]
    17.0   4
* s-type functions
   12    5
4.0970804090000000e3
1.2030831930000000e3
3.8628094800000000e2
1.3533769000000000e2
5.1567046000000000e1
2.1261034000000000e1
9.420135000000000000
4.445228000000000000
2.209399000000000000
1.141575000000000000
0.604182000000000000
0.322378000000000000
  1.980545110000  0.000000000000  0.000000000000  0.000000000000  0.000000000000
  5.309734500000  0.000000000000  0.000000000000  0.000000000000  0.000000000000
 13.235265500000  0.000000000000  0.000000000000  0.000000000000  0.000000000000
 10.714996000000  0.000000000000  0.000000000000  0.000000000000  0.000000000000
 -1.325651140000  0.000000000000  0.000000000000  0.000000000000  0.000000000000
  2.711803640000  0.000000000000  0.000000000000  0.000000000000  0.000000000000
  7.546405110000  0.000000000000  0.000000000000  0.000000000000  0.000000000000
  1.736036180000  0.000000000000  0.000000000000  0.000000000000  0.000000000000
  0.000000000000 -1.401974960000  0.000000000000  0.000000000000  0.000000000000
  0.000000000000  0.000000000000  0.982719736000  0.000000000000  0.000000000000
  0.000000000000  0.000000000000  0.000000000000  0.464178589000  0.000000000000
  0.000000000000  0.000000000000  0.000000000000  0.000000000000  0.369336889000
* p-type functions
    6    3
5.1849990261100000e1
1.7584783518800000e1
6.492272396180000000
2.558891147140000000
1.051187677810000000
0.437994865757000000
  0.035933550600  0.000000000000  0.000000000000
 -0.086959931800  0.000000000000  0.000000000000
  0.072121120000  0.000000000000  0.000000000000
 -0.063420186400  0.000000000000  0.000000000000
  0.000000000000  0.026415229300  0.000000000000
  0.000000000000  0.000000000000 -0.019767069200
* d-type functions
    5    2
3.4705550000000000e1
1.0704427000000000e1
3.568067000000000000
1.249848000000000000
0.445360000000000000
 -0.054870371000  0.000000000000
 -0.006190194020  0.000000000000
  0.033745048000  0.000000000000
 -0.090523220900  0.000000000000
  0.000000000000  0.041868007500
* f-type functions
    1    1
1.187214611800000000
  1.000000000000
* g-type functions
    1    1
1.300000000000000000
  1.000000000000

/K.def-TZVP.Eichkorn.16s4p4d1f.6s2p2d1f.
K. Eichkorn, F. Weigend, O. Treutler, R. Ahlrichs. Theor. Chem. Acc. 97 (1997) 119-124. doi:10.1007/s002140050244
POTASSIUM (16s,4p,4d,1f) -> [6s,2p,2d,1f]
    19.0   3
* s-type functions
   16    6
1.0737353763000000e4
4.1203223140000000e3
1.6248894270000000e3
6.5764744500000000e2
2.7277349300000000e2
1.1576005800000000e2
5.0178320000000000e1
2.2175547000000000e1
9.972005000000000000
4.553463000000000000
2.106734000000000000
0.985382000000000000
0.464849000000000000
0.220643000000000000
0.105119000000000000
0.050143000000000000
  0.913636447000  0.000000000000  0.000000000000  0.000000000000  0.000000000000  0.000000000000
  1.536880320000  0.000000000000  0.000000000000  0.000000000000  0.000000000000  0.000000000000
  4.965419610000  0.000000000000  0.000000000000  0.000000000000  0.000000000000  0.000000000000
 10.407608400000  0.000000000000  0.000000000000  0.000000000000  0.000000000000  0.000000000000
 14.201922400000  0.000000000000  0.000000000000  0.000000000000  0.000000000000  0.000000000000
  5.514662410000  0.000000000000  0.000000000000  0.000000000000  0.000000000000  0.000000000000
 -2.456635410000  0.000000000000  0.000000000000  0.000000000000  0.000000000000  0.000000000000
  6.630596650000  0.000000000000  0.000000000000  0.000000000000  0.000000000000  0.000000000000
  8.904563110000  0.000000000000  0.000000000000  0.000000000000  0.000000000000  0.000000000000
 -1.483844710000  0.000000000000  0.000000000000  0.000000000000  0.000000000000  0.000000000000
  0.000000000000  0.128456862000  0.000000000000  0.000000000000  0.000000000000  0.000000000000
  0.000000000000  1.706646210000  0.000000000000  0.000000000000  0.000000000000  0.000000000000
  0.000000000000  0.000000000000  0.335973183000  0.000000000000  0.000000000000  0.000000000000
  0.000000000000  0.000000000000  0.000000000000  0.000178096756  0.000000000000  0.000000000000
  0.000000000000  0.000000000000  0.000000000000  0.000000000000  0.005759205640  0.000000000000
  0.000000000000  0.000000000000  0.000000000000  0.000000000000  0.000000000000  0.027454568100
* p-type functions
    4    2
0.901939000000000000
0.317777000000000000
0.134927000000000000
0.061495000000000000
 -0.009022237760  0.000000000000
  0.010820897900  0.000000000000
 -0.000372555485  0.000000000000
  0.000000000000 -0.015736741900
* d-type functions
    4    2
2.888532000000000000
0.865328000000000000
0.264540000000000000
0.081429000000000000
  0.000428118152  0.000000000000
  0.000127318227  0.000000000000
 -0.001382206270  0.000000000000
  0.000000000000  0.003348771350
* f-type functions
    1    1
0.248972000000000000
 -0.000114957103

/Ca.def-TZVP.Eichkorn.16s4p4d1f.6s2p2d1f.
K. Eichkorn, F. Weigend, O. Treutler, R. Ahlrichs. Theor. Chem. Acc. 97 (1997) 119-124. doi:10.1007/s002140050244
CALCIUM (16s,4p,4d,1f) -> [6s,2p,2d,1f]
    20.0   3
* s-type functions
   16    6
1.7876402675000000e4
6.2361561720000000e3
2.2694510690000000e3
8.6030577100000000e2
3.3912491100000000e2
1.3872891400000000e2
5.8758976000000000e1
2.5701108000000000e1
1.1575531000000000e1
5.351257000000000000
2.530407000000000000
1.219348000000000000
0.596422000000000000
0.294900000000000000
0.146770000000000000
0.073207000000000000
  0.601608653000  0.000000000000  0.000000000000  0.000000000000  0.000000000000  0.000000000000
  1.339923840000  0.000000000000  0.000000000000  0.000000000000  0.000000000000  0.000000000000
  4.533857250000  0.000000000000  0.000000000000  0.000000000000  0.000000000000  0.000000000000
 10.623741100000  0.000000000000  0.000000000000  0.000000000000  0.000000000000  0.000000000000
 16.230191000000  0.000000000000  0.000000000000  0.000000000000  0.000000000000  0.000000000000
  7.408796110000  0.000000000000  0.000000000000  0.000000000000  0.000000000000  0.000000000000
 -2.856617680000  0.000000000000  0.000000000000  0.000000000000  0.000000000000  0.000000000000
  7.082955260000  0.000000000000  0.000000000000  0.000000000000  0.000000000000  0.000000000000
 10.328230400000  0.000000000000  0.000000000000  0.000000000000  0.000000000000  0.000000000000
 -1.938812470000  0.000000000000  0.000000000000  0.000000000000  0.000000000000  0.000000000000
  0.000000000000  0.111971433000  0.000000000000  0.000000000000  0.000000000000  0.000000000000
  0.000000000000  2.166929930000  0.000000000000  0.000000000000  0.000000000000  0.000000000000
  0.000000000000  0.000000000000  0.343451639000  0.000000000000  0.000000000000  0.000000000000
  0.000000000000  0.000000000000  0.000000000000 -0.037499726100  0.000000000000  0.000000000000
  0.000000000000  0.000000000000  0.000000000000  0.000000000000  0.055096836000  0.000000000000
  0.000000000000  0.000000000000  0.000000000000  0.000000000000  0.000000000000  0.058943614500
* p-type functions
    4    2
7.358495000000000000
3.441177000000000000
1.944200000000000000
1.180326000000000000
  0.012559544400  0.000000000000
 -0.044669072100  0.000000000000
  0.072283144400  0.000000000000
  0.000000000000 -0.034893715900
* d-type functions
    4    2
0.522262000000000000
0.201451000000000000
0.090202000000000000
0.042677000000000000
 -0.007663351020  0.000000000000
  0.012154989900  0.000000000000
  0.001739197060  0.000000000000
  0.000000000000 -0.000459017664
* f-type functions
    1    1
0.147843000000000000
  0.003848029600

/Sc.def-TZVP.Eichkorn.16s4p4d3f4g.6s4p3d3f2g.
K. Eichkorn, F. Weigend, O. Treutler, R. Ahlrichs. Theor. Chem. Acc. 97 (1997) 119-124. doi:10.1007/s002140050244
SCANDIUM (16s,4p,4d,3f,4g) -> [6s,4p,3d,3f,2g]
    21.0   4
* s-type functions
   16    6
1.2111031809000000e4
4.7316035230000000e3
1.8997419590000000e3
7.8281285500000000e2
3.3056840100000000e2
1.4282775400000000e2
6.3032568000000000e1
2.8360804000000000e1
1.2984412000000000e1
6.036391000000000000
2.843422000000000000
1.354043000000000000
0.650334000000000000
0.314276000000000000
0.152440000000000000
0.074032000000000000
  1.189995500000  0.000000000000  0.000000000000  0.000000000000  0.000000000000  0.000000000000
  1.848536800000  0.000000000000  0.000000000000  0.000000000000  0.000000000000  0.000000000000
  6.005310300000  0.000000000000  0.000000000000  0.000000000000  0.000000000000  0.000000000000
 12.160968100000  0.000000000000  0.000000000000  0.000000000000  0.000000000000  0.000000000000
 16.267385700000  0.000000000000  0.000000000000  0.000000000000  0.000000000000  0.000000000000
  6.269541650000  0.000000000000  0.000000000000  0.000000000000  0.000000000000  0.000000000000
 -3.041849750000  0.000000000000  0.000000000000  0.000000000000  0.000000000000  0.000000000000
  8.005761510000  0.000000000000  0.000000000000  0.000000000000  0.000000000000  0.000000000000
 11.162412000000  0.000000000000  0.000000000000  0.000000000000  0.000000000000  0.000000000000
 -2.353252530000  0.000000000000  0.000000000000  0.000000000000  0.000000000000  0.000000000000
  0.000000000000  0.325752330000  0.000000000000  0.000000000000  0.000000000000  0.000000000000
  0.000000000000  2.491811360000  0.000000000000  0.000000000000  0.000000000000  0.000000000000
  0.000000000000  0.000000000000  0.358792845000  0.000000000000  0.000000000000  0.000000000000
  0.000000000000  0.000000000000  0.000000000000  0.084840892800  0.000000000000  0.000000000000
  0.000000000000  0.000000000000  0.000000000000  0.000000000000  0.068055579300  0.000000000000
  0.000000000000  0.000000000000  0.000000000000  0.000000000000  0.000000000000  0.024870084400
* p-type functions
    4    4
2.057929800000000000
0.771106770000000000
0.312543280000000000
0.130226370000000000
  1.000000000000  0.000000000000  0.000000000000  0.000000000000
  0.000000000000  1.000000000000  0.000000000000  0.000000000000
  0.000000000000  0.000000000000  1.000000000000  0.000000000000
  0.000000000000  0.000000000000  0.000000000000  1.000000000000
* d-type functions
    4    3
7.266619000000000000
2.260966000000000000
0.792202000000000000
0.289753000000000000
  0.022808511100  0.000000000000  0.000000000000
  0.071708143000  0.000000000000  0.000000000000
  0.000000000000  0.064317693600  0.000000000000
  0.000000000000  0.000000000000  0.033211510200
* f-type functions
    3    3
2.107457900000000000
0.810560730000000000
0.324224290000000000
  1.000000000000  0.000000000000  0.000000000000
  0.000000000000  1.000000000000  0.000000000000
  0.000000000000  0.000000000000  1.000000000000
* g-type functions
    4    2
8.072890000000000000
2.809364000000000000
0.995311000000000000
0.354757000000000000
  0.064504255700  0.000000000000
  0.109991827000  0.000000000000
  0.082581208500  0.000000000000
  0.000000000000  0.033722561800

/Ti.def-TZVP.Eichkorn.16s4p4d3f4g.6s4p2d3f2g.
K. Eichkorn, F. Weigend, O. Treutler, R. Ahlrichs. Theor. Chem. Acc. 97 (1997) 119-124. doi:10.1007/s002140050244
TITANIUM (16s,4p,4d,3f,4g) -> [6s,4p,2d,3f,2g]
    22.0   4
* s-type functions
   16    6
1.1741261831000000e4
3.8961123760000000e3
1.3666845520000000e3
5.0617401300000000e2
1.9762067900000000e2
8.1167943000000000e1
3.4983992000000000e1
1.5775347000000000e1
7.416055000000000000
3.619707000000000000
1.825857000000000000
0.946922000000000000
0.502082000000000000
0.270541000000000000
0.147213000000000000
0.080369000000000000
  1.466813830000  0.000000000000  0.000000000000  0.000000000000  0.000000000000  0.000000000000
  3.627443160000  0.000000000000  0.000000000000  0.000000000000  0.000000000000  0.000000000000
 10.666123900000  0.000000000000  0.000000000000  0.000000000000  0.000000000000  0.000000000000
 19.189456300000  0.000000000000  0.000000000000  0.000000000000  0.000000000000  0.000000000000
 12.103292700000  0.000000000000  0.000000000000  0.000000000000  0.000000000000  0.000000000000
 -3.342065440000  0.000000000000  0.000000000000  0.000000000000  0.000000000000  0.000000000000
  6.943725690000  0.000000000000  0.000000000000  0.000000000000  0.000000000000  0.000000000000
 13.556398000000  0.000000000000  0.000000000000  0.000000000000  0.000000000000  0.000000000000
 -1.838679300000  0.000000000000  0.000000000000  0.000000000000  0.000000000000  0.000000000000
 -0.651764111000  0.000000000000  0.000000000000  0.000000000000  0.000000000000  0.000000000000
  0.000000000000  2.997505790000  0.000000000000  0.000000000000  0.000000000000  0.000000000000
  0.000000000000  0.867041750000  0.000000000000  0.000000000000  0.000000000000  0.000000000000
  0.000000000000  0.000000000000  0.116611733000  0.000000000000  0.000000000000  0.000000000000
  0.000000000000  0.000000000000  0.000000000000  0.006725100190  0.000000000000  0.000000000000
  0.000000000000  0.000000000000  0.000000000000  0.000000000000  0.084407783500  0.000000000000
  0.000000000000  0.000000000000  0.000000000000  0.000000000000  0.000000000000  0.042697726100
* p-type functions
    4    4
2.315989617000000000
0.867801865000000000
0.351735516000000000
0.146556465000000000
  1.000000000000  0.000000000000  0.000000000000  0.000000000000
  0.000000000000  1.000000000000  0.000000000000  0.000000000000
  0.000000000000  0.000000000000  1.000000000000  0.000000000000
  0.000000000000  0.000000000000  0.000000000000  1.000000000000
* d-type functions
    4    2
6.236666000000000000
2.369213000000000000
0.915461000000000000
0.355766000000000000
  0.058656165700  0.000000000000
  0.134910832000  0.000000000000
  0.084392678100  0.000000000000
  0.000000000000  0.014806844800
* f-type functions
    3    3
2.741536012000000000
1.054436927000000000
0.421774771000000000
  1.000000000000  0.000000000000  0.000000000000
  0.000000000000  1.000000000000  0.000000000000
  0.000000000000  0.000000000000  1.000000000000
* g-type functions
    4    2
1.0575443000000000e1
3.630363000000000000
1.365304000000000000
0.530352000000000000
  0.081347391600  0.000000000000
  0.143312382000  0.000000000000
  0.087409486500  0.000000000000
  0.000000000000  0.018866224900

/V.def-TZVP.Eichkorn.16s4p4d3f4g.6s4p2d3f2g.
K. Eichkorn, F. Weigend, O. Treutler, R. Ahlrichs. Theor. Chem. Acc. 97 (1997) 119-124. doi:10.1007/s002140050244
VANADIUM (16s,4p,4d,3f,4g) -> [6s,4p,2d,3f,2g]
    23.0   4
* s-type functions
   16    6
1.2144548430000000e4
4.0905472180000000e3
1.4535322280000000e3
5.4419969900000000e2
2.1432301900000000e2
8.8606436000000000e1
3.8358694000000000e1
1.7337038000000000e1
8.152567000000000000
3.972831000000000000
1.997355000000000000
1.030907000000000000
0.543337000000000000
0.290755000000000000
0.157036000000000000
0.085078000000000000
  1.689585790000  0.000000000000  0.000000000000  0.000000000000  0.000000000000  0.000000000000
  3.967884470000  0.000000000000  0.000000000000  0.000000000000  0.000000000000  0.000000000000
 11.636430800000  0.000000000000  0.000000000000  0.000000000000  0.000000000000  0.000000000000
 20.419425800000  0.000000000000  0.000000000000  0.000000000000  0.000000000000  0.000000000000
 12.680217800000  0.000000000000  0.000000000000  0.000000000000  0.000000000000  0.000000000000
 -3.743784800000  0.000000000000  0.000000000000  0.000000000000  0.000000000000  0.000000000000
  7.891748590000  0.000000000000  0.000000000000  0.000000000000  0.000000000000  0.000000000000
 14.629886000000  0.000000000000  0.000000000000  0.000000000000  0.000000000000  0.000000000000
 -2.486136690000  0.000000000000  0.000000000000  0.000000000000  0.000000000000  0.000000000000
 -0.332189075000  0.000000000000  0.000000000000  0.000000000000  0.000000000000  0.000000000000
  0.000000000000  3.377274420000  0.000000000000  0.000000000000  0.000000000000  0.000000000000
  0.000000000000  0.966689644000  0.000000000000  0.000000000000  0.000000000000  0.000000000000
  0.000000000000  0.000000000000  0.146108806000  0.000000000000  0.000000000000  0.000000000000
  0.000000000000  0.000000000000  0.000000000000  0.022185254000  0.000000000000  0.000000000000
  0.000000000000  0.000000000000  0.000000000000  0.000000000000  0.085357872600  0.000000000000
  0.000000000000  0.000000000000  0.000000000000  0.000000000000  0.000000000000  0.043085775000
* p-type functions
    4    4
2.532198948275547600
0.948815553160801700
0.384571803323930650
0.160238251384971100
  1.000000000000  0.000000000000  0.000000000000  0.000000000000
  0.000000000000  1.000000000000  0.000000000000  0.000000000000
  0.000000000000  0.000000000000  1.000000000000  0.000000000000
  0.000000000000  0.000000000000  0.000000000000  1.000000000000
* d-type functions
    4    2
6.907799000000000000
2.586711500000000000
1.012275000000000000
0.402369000000000000
  0.068841856600  0.000000000000
  0.137781870000  0.000000000000
  0.074061573100  0.000000000000
  0.000000000000  0.011596946500
* f-type functions
    3    3
3.283527616460000200
1.262895237100000000
0.505158094840000000
  1.000000000000  0.000000000000  0.000000000000
  0.000000000000  1.000000000000  0.000000000000
  0.000000000000  0.000000000000  1.000000000000
* g-type functions
    4    2
1.2313283000000000e1
4.300262000000000000
1.649020000000000000
0.653708000000000000
 -0.095757405600  0.000000000000
 -0.164750866000  0.000000000000
 -0.098513994900  0.000000000000
  0.000000000000 -0.022036515100

/Cr.def-TZVP.Eichkorn.16s4p4d3f4g.6s4p2d3f2g.
K. Eichkorn, F. Weigend, O. Treutler, R. Ahlrichs. Theor. Chem. Acc. 97 (1997) 119-124. doi:10.1007/s002140050244
CHROMIUM (16s,4p,4d,3f,4g) -> [6s,4p,2d,3f,2g]
    24.0   4
* s-type functions
   16    6
1.2542697207000000e4
4.3761659410000000e3
1.6044123200000000e3
6.1725050900000000e2
2.4876503200000000e2
1.0480967800000000e2
4.6050145000000000e1
2.1039463000000000e1
9.962928000000000000
4.871698000000000000
2.449796000000000000
1.261203000000000000
0.661526000000000000
0.351717000000000000
0.188542000000000000
0.101349000000000000
  1.939660910000  0.000000000000  0.000000000000  0.000000000000  0.000000000000  0.000000000000
  4.077878700000  0.000000000000  0.000000000000  0.000000000000  0.000000000000  0.000000000000
 12.040282200000  0.000000000000  0.000000000000  0.000000000000  0.000000000000  0.000000000000
 20.914710800000  0.000000000000  0.000000000000  0.000000000000  0.000000000000  0.000000000000
 14.566726900000  0.000000000000  0.000000000000  0.000000000000  0.000000000000  0.000000000000
 -3.481212980000  0.000000000000  0.000000000000  0.000000000000  0.000000000000  0.000000000000
  6.206087330000  0.000000000000  0.000000000000  0.000000000000  0.000000000000  0.000000000000
 16.784646300000  0.000000000000  0.000000000000  0.000000000000  0.000000000000  0.000000000000
 -1.000885210000  0.000000000000  0.000000000000  0.000000000000  0.000000000000  0.000000000000
 -1.621954600000  0.000000000000  0.000000000000  0.000000000000  0.000000000000  0.000000000000
  0.000000000000  3.986806660000  0.000000000000  0.000000000000  0.000000000000  0.000000000000
  0.000000000000  1.339164950000  0.000000000000  0.000000000000  0.000000000000  0.000000000000
  0.000000000000  0.000000000000  0.422336725000  0.000000000000  0.000000000000  0.000000000000
  0.000000000000  0.000000000000  0.000000000000 -0.069535417400  0.000000000000  0.000000000000
  0.000000000000  0.000000000000  0.000000000000  0.000000000000  0.110457729000  0.000000000000
  0.000000000000  0.000000000000  0.000000000000  0.000000000000  0.000000000000  0.060652129400
* p-type functions
    4    4
2.720728046403730000
1.019457451440246400
0.413204219941734100
0.172168424975722540
  1.000000000000  0.000000000000  0.000000000000  0.000000000000
  0.000000000000  1.000000000000  0.000000000000  0.000000000000
  0.000000000000  0.000000000000  1.000000000000  0.000000000000
  0.000000000000  0.000000000000  0.000000000000  1.000000000000
* d-type functions
    4    2
7.578932000000000000
2.804210000000000000
1.109089000000000000
0.448972000000000000
  0.148940709000  0.000000000000
  0.270560333000  0.000000000000
  0.132172861000  0.000000000000
  0.000000000000  0.017192755300
* f-type functions
    3    3
2.859450660430000000
1.099788715550000000
0.439915486220000000
  1.000000000000  0.000000000000  0.000000000000
  0.000000000000  1.000000000000  0.000000000000
  0.000000000000  0.000000000000  1.000000000000
* g-type functions
    4    2
1.3479924000000000e1
4.616358000000000000
1.707146000000000000
0.648569000000000000
  0.114400799000  0.000000000000
  0.187498126000  0.000000000000
  0.101292490000  0.000000000000
  0.000000000000  0.014612929200

/Mn.def-TZVP.Eichkorn.16s4p4d3f4g.6s4p2d3f2g.
K. Eichkorn, F. Weigend, O. Treutler, R. Ahlrichs. Theor. Chem. Acc. 97 (1997) 119-124. doi:10.1007/s002140050244
MANGANESE (16s,4p,4d,3f,4g) -> [6s,4p,2d,3f,2g]
    25.0   4
* s-type functions
   16    6
1.2991430000000000e4
4.4344427820000000e3
1.5938311840000000e3
6.0240907900000000e2
2.3903319800000000e2
9.9367910000000000e1
4.3169587000000000e1
1.9542687000000000e1
9.187503000000000000
4.468372000000000000
2.238593000000000000
1.149809000000000000
0.602402000000000000
0.320186000000000000
0.171679000000000000
0.092322000000000000
  2.186952190000  0.000000000000  0.000000000000  0.000000000000  0.000000000000  0.000000000000
  4.841208860000  0.000000000000  0.000000000000  0.000000000000  0.000000000000  0.000000000000
 14.105837200000  0.000000000000  0.000000000000  0.000000000000  0.000000000000  0.000000000000
 23.324760100000  0.000000000000  0.000000000000  0.000000000000  0.000000000000  0.000000000000
 12.903894800000  0.000000000000  0.000000000000  0.000000000000  0.000000000000  0.000000000000
 -4.814048450000  0.000000000000  0.000000000000  0.000000000000  0.000000000000  0.000000000000
 11.596316700000  0.000000000000  0.000000000000  0.000000000000  0.000000000000  0.000000000000
 15.528078900000  0.000000000000  0.000000000000  0.000000000000  0.000000000000  0.000000000000
 -4.568221570000  0.000000000000  0.000000000000  0.000000000000  0.000000000000  0.000000000000
  1.327793790000  0.000000000000  0.000000000000  0.000000000000  0.000000000000  0.000000000000
  0.000000000000  3.906418650000  0.000000000000  0.000000000000  0.000000000000  0.000000000000
  0.000000000000  1.133621050000  0.000000000000  0.000000000000  0.000000000000  0.000000000000
  0.000000000000  0.000000000000  0.133043780000  0.000000000000  0.000000000000  0.000000000000
  0.000000000000  0.000000000000  0.000000000000  0.066670911700  0.000000000000  0.000000000000
  0.000000000000  0.000000000000  0.000000000000  0.000000000000  0.077429147000  0.000000000000
  0.000000000000  0.000000000000  0.000000000000  0.000000000000  0.000000000000  0.043302462400
* p-type functions
    4    4
2.903060486800000000
1.087777460500000000
0.440895533600000000
0.183706472300000000
  1.000000000000  0.000000000000  0.000000000000  0.000000000000
  0.000000000000  1.000000000000  0.000000000000  0.000000000000
  0.000000000000  0.000000000000  1.000000000000  0.000000000000
  0.000000000000  0.000000000000  0.000000000000  1.000000000000
* d-type functions
    4    2
2.0554591000000000e1
6.385832000000000000
2.280189000000000000
0.856837000000000000
 -0.015786753000  0.000000000000
  0.006992400430  0.000000000000
  0.010147569600  0.000000000000
  0.000000000000 -0.016102947900
* f-type functions
    3    3
4.386616771400000000
1.687160296700000000
0.674864118000000000
  1.000000000000  0.000000000000  0.000000000000
  0.000000000000  1.000000000000  0.000000000000
  0.000000000000  0.000000000000  1.000000000000
* g-type functions
    4    2
2.1386169000000000e1
7.237472000000000000
2.567980000000000000
0.926123000000000000
  0.066361633000  0.000000000000
  0.143844098000  0.000000000000
  0.092522924900  0.000000000000
  0.000000000000  0.023578660100

/Fe.def-TZVP.Eichkorn.16s4p4d3f4g.6s4p2d3f2g.
K. Eichkorn, F. Weigend, O. Treutler, R. Ahlrichs. Theor. Chem. Acc. 97 (1997) 119-124. doi:10.1007/s002140050244
IRON (16s,4p,4d,3f,4g) -> [6s,4p,2d,3f,2g]
    26.0   4
* s-type functions
   16    6
1.3280746866000000e4
4.5559319410000000e3
1.6452436440000000e3
6.2460170900000000e2
2.4886609300000000e2
1.0385349100000000e2
4.5278613000000000e1
2.0564393000000000e1
9.696774000000000000
4.728977000000000000
2.375100000000000000
1.222744000000000000
0.641992000000000000
0.341923000000000000
0.183693000000000000
0.098974000000000000
  2.494158990000  0.000000000000  0.000000000000  0.000000000000  0.000000000000  0.000000000000
  5.391326900000  0.000000000000  0.000000000000  0.000000000000  0.000000000000  0.000000000000
 15.576808700000  0.000000000000  0.000000000000  0.000000000000  0.000000000000  0.000000000000
 24.829659500000  0.000000000000  0.000000000000  0.000000000000  0.000000000000  0.000000000000
 12.599002000000  0.000000000000  0.000000000000  0.000000000000  0.000000000000  0.000000000000
 -5.270932650000  0.000000000000  0.000000000000  0.000000000000  0.000000000000  0.000000000000
 13.844332600000  0.000000000000  0.000000000000  0.000000000000  0.000000000000  0.000000000000
 15.491829600000  0.000000000000  0.000000000000  0.000000000000  0.000000000000  0.000000000000
 -5.520289990000  0.000000000000  0.000000000000  0.000000000000  0.000000000000  0.000000000000
  2.295265510000  0.000000000000  0.000000000000  0.000000000000  0.000000000000  0.000000000000
  0.000000000000  4.116182420000  0.000000000000  0.000000000000  0.000000000000  0.000000000000
  0.000000000000  1.232459230000  0.000000000000  0.000000000000  0.000000000000  0.000000000000
  0.000000000000  0.000000000000  0.129227934000  0.000000000000  0.000000000000  0.000000000000
  0.000000000000  0.000000000000  0.000000000000  0.094835589000  0.000000000000  0.000000000000
  0.000000000000  0.000000000000  0.000000000000  0.000000000000  0.076094966800  0.000000000000
  0.000000000000  0.000000000000  0.000000000000  0.000000000000  0.000000000000  0.045469642900
* p-type functions
    4    4
3.080554949000000000
1.154284678100000000
0.467852090600000000
0.194938371100000000
  1.000000000000  0.000000000000  0.000000000000  0.000000000000
  0.000000000000  1.000000000000  0.000000000000  0.000000000000
  0.000000000000  0.000000000000  1.000000000000  0.000000000000
  0.000000000000  0.000000000000  0.000000000000  1.000000000000
* d-type functions
    4    2
1.0082702000000000e1
4.063616000000000000
1.672439000000000000
0.693210000000000000
  0.051131778700  0.000000000000
  0.083874447300  0.000000000000
  0.060421589400  0.000000000000
  0.000000000000  0.015158493600
* f-type functions
    3    3
0.730487863400000000
1.826219658500000000
4.748171112100000000
  1.000000000000  0.000000000000  0.000000000000
  0.000000000000  1.000000000000  0.000000000000
  0.000000000000  0.000000000000  1.000000000000
* g-type functions
    4    2
1.8283549000000000e1
6.210359000000000000
2.263520000000000000
0.845580000000000000
  0.083537841400  0.000000000000
  0.142506502000  0.000000000000
  0.079575659200  0.000000000000
  0.000000000000  0.018801442300

/Co.def-TZVP.Eichkorn.16s4p4d3f4g.6s4p3d3f2g.
K. Eichkorn, F. Weigend, O. Treutler, R. Ahlrichs. Theor. Chem. Acc. 97 (1997) 119-124. doi:10.1007/s002140050244
COBALT (16s,4p,4d,3f,4g) -> [6s,4p,3d,3f,2g]
    27.0   4
* s-type functions
   16    6
1.4890776638000000e4
5.0113386260000000e3
1.7828825690000000e3
6.6972941400000000e2
2.6521018400000000e2
1.1048771900000000e2
4.8304083000000000e1
2.2094874000000000e1
1.0536499000000000e1
5.216983000000000000
2.669599000000000000
1.404547000000000000
0.755521000000000000
0.413011000000000000
0.228000000000000000
0.126280000000000000
  2.520084750000  0.000000000000  0.000000000000  0.000000000000  0.000000000000  0.000000000000
  5.761617930000  0.000000000000  0.000000000000  0.000000000000  0.000000000000  0.000000000000
 16.606146000000  0.000000000000  0.000000000000  0.000000000000  0.000000000000  0.000000000000
 26.647266800000  0.000000000000  0.000000000000  0.000000000000  0.000000000000  0.000000000000
 12.932997000000  0.000000000000  0.000000000000  0.000000000000  0.000000000000  0.000000000000
 -5.600124880000  0.000000000000  0.000000000000  0.000000000000  0.000000000000  0.000000000000
 15.464358600000  0.000000000000  0.000000000000  0.000000000000  0.000000000000  0.000000000000
 15.929001200000  0.000000000000  0.000000000000  0.000000000000  0.000000000000  0.000000000000
 -6.152643310000  0.000000000000  0.000000000000  0.000000000000  0.000000000000  0.000000000000
  2.657899490000  0.000000000000  0.000000000000  0.000000000000  0.000000000000  0.000000000000
  0.000000000000  4.469627730000  0.000000000000  0.000000000000  0.000000000000  0.000000000000
  0.000000000000  1.502047120000  0.000000000000  0.000000000000  0.000000000000  0.000000000000
  0.000000000000  0.000000000000  0.211924875000  0.000000000000  0.000000000000  0.000000000000
  0.000000000000  0.000000000000  0.000000000000  0.110556886000  0.000000000000  0.000000000000
  0.000000000000  0.000000000000  0.000000000000  0.000000000000  0.104164931000  0.000000000000
  0.000000000000  0.000000000000  0.000000000000  0.000000000000  0.000000000000  0.058253873600
* p-type functions
    4    4
3.238254157200000000
1.213374609200000000
0.491802289700000000
0.204917620700000000
  1.000000000000  0.000000000000  0.000000000000  0.000000000000
  0.000000000000  1.000000000000  0.000000000000  0.000000000000
  0.000000000000  0.000000000000  1.000000000000  0.000000000000
  0.000000000000  0.000000000000  0.000000000000  1.000000000000
* d-type functions
    4    3
1.0705102000000000e1
4.051880000000000000
1.541125000000000000
0.587120000000000000
  0.073112936100  0.000000000000  0.000000000000
  0.123715481000  0.000000000000  0.000000000000
  0.000000000000  0.054167948500  0.000000000000
  0.000000000000  0.000000000000  0.006113893570
* f-type functions
    3    3
0.800300194800000000
2.000750487100000000
5.201951266500000000
  1.000000000000  0.000000000000  0.000000000000
  0.000000000000  1.000000000000  0.000000000000
  0.000000000000  0.000000000000  1.000000000000
* g-type functions
    4    2
2.0350361000000000e1
6.890388000000000000
2.511990000000000000
0.939816000000000000
  0.148919677000  0.000000000000
  0.248183679000  0.000000000000
  0.130751255000  0.000000000000
  0.000000000000  0.027391458400

/Ni.def-TZVP.Eichkorn.17s4p4d3f4g.7s4p2d3f2g.
K. Eichkorn, F. Weigend, O. Treutler, R. Ahlrichs. Theor. Chem. Acc. 97 (1997) 119-124. doi:10.1007/s002140050244
NICKEL (17s,4p,4d,3f,4g) -> [7s,4p,2d,3f,2g]
    28.0   4
* s-type functions
   17    7
1.6946514342000000e4
6.0559092260000000e3
2.2734457570000000e3
8.9560244800000000e2
3.6971209300000000e2
1.5965513500000000e2
7.1974004000000000e1
3.3789715000000000e1
1.6473453000000000e1
8.313425000000000000
4.327166000000000000
2.313786000000000000
1.265471000000000000
0.704639000000000000
0.397493000000000000
0.226004000000000000
0.128840000000000000
  2.538639830000  0.000000000000  0.000000000000  0.000000000000  0.000000000000  0.000000000000  0.000000000000
  4.782974540000  0.000000000000  0.000000000000  0.000000000000  0.000000000000  0.000000000000  0.000000000000
 14.673190800000  0.000000000000  0.000000000000  0.000000000000  0.000000000000  0.000000000000  0.000000000000
 25.108919700000  0.000000000000  0.000000000000  0.000000000000  0.000000000000  0.000000000000  0.000000000000
 20.154520900000  0.000000000000  0.000000000000  0.000000000000  0.000000000000  0.000000000000  0.000000000000
 -3.614602130000  0.000000000000  0.000000000000  0.000000000000  0.000000000000  0.000000000000  0.000000000000
  5.036701810000  0.000000000000  0.000000000000  0.000000000000  0.000000000000  0.000000000000  0.000000000000
 22.349200600000  0.000000000000  0.000000000000  0.000000000000  0.000000000000  0.000000000000  0.000000000000
  2.217020080000  0.000000000000  0.000000000000  0.000000000000  0.000000000000  0.000000000000  0.000000000000
 -4.872403740000  0.000000000000  0.000000000000  0.000000000000  0.000000000000  0.000000000000  0.000000000000
  0.000000000000  6.378407910000  0.000000000000  0.000000000000  0.000000000000  0.000000000000  0.000000000000
  0.000000000000  2.705174450000  0.000000000000  0.000000000000  0.000000000000  0.000000000000  0.000000000000
  0.000000000000  0.000000000000  1.638033730000  0.000000000000  0.000000000000  0.000000000000  0.000000000000
  0.000000000000  0.000000000000  0.000000000000 -0.256086364000  0.000000000000  0.000000000000  0.000000000000
  0.000000000000  0.000000000000  0.000000000000  0.000000000000  0.337113542000  0.000000000000  0.000000000000
  0.000000000000  0.000000000000  0.000000000000  0.000000000000  0.000000000000 -0.032228944500  0.000000000000
  0.000000000000  0.000000000000  0.000000000000  0.000000000000  0.000000000000  0.000000000000  0.092909451800
* p-type functions
    4    4
3.374693599500000000
1.264498501000000000
0.512523711500000000
0.213551546400000000
  1.000000000000  0.000000000000  0.000000000000  0.000000000000
  0.000000000000  1.000000000000  0.000000000000  0.000000000000
  0.000000000000  0.000000000000  1.000000000000  0.000000000000
  0.000000000000  0.000000000000  0.000000000000  1.000000000000
* d-type functions
    4    2
1.1631090000000000e1
4.347172000000000000
1.650239000000000000
0.629740000000000000
 -0.076109418800  0.000000000000
 -0.110523689000  0.000000000000
 -0.060077732100  0.000000000000
  0.000000000000 -0.007097150900
* f-type functions
    3    3
0.874718435800000000
2.186796089600000000
5.685669832900000000
  1.000000000000  0.000000000000  0.000000000000
  0.000000000000  1.000000000000  0.000000000000
  0.000000000000  0.000000000000  1.000000000000
* g-type functions
    4    2
2.2517337000000000e1
7.620909000000000000
2.709583000000000000
0.979884000000000000
  0.145588053000  0.000000000000
  0.243244287000  0.000000000000
  0.123135082000  0.000000000000
  0.000000000000  0.021235307300

/Cu.def-TZVP.Eichkorn.17s4p4d3f4g.7s4p2d3f2g.
K. Eichkorn, F. Weigend, O. Treutler, R. Ahlrichs. Theor. Chem. Acc. 97 (1997) 119-124. doi:10.1007/s002140050244
COPPER (17s,4p,4d,3f,4g) -> [7s,4p,2d,3f,2g]
    29.0   4
* s-type functions
   17    7
1.8942626000000000e4
6.6926071760000000e3
2.4871694960000000e3
9.7119106400000000e2
3.9792066100000000e2
1.7078102600000000e2
7.6618887000000000e1
3.5844205000000000e1
1.7435980000000000e1
8.790108000000000000
4.575692000000000000
2.449357000000000000
1.342247000000000000
0.749382000000000000
0.424079000000000000
0.241964000000000000
0.138436000000000000
  2.570758000000  0.000000000000  0.000000000000  0.000000000000  0.000000000000  0.000000000000  0.000000000000
  4.930878590000  0.000000000000  0.000000000000  0.000000000000  0.000000000000  0.000000000000  0.000000000000
 15.415953800000  0.000000000000  0.000000000000  0.000000000000  0.000000000000  0.000000000000  0.000000000000
 26.574686500000  0.000000000000  0.000000000000  0.000000000000  0.000000000000  0.000000000000  0.000000000000
 21.587918000000  0.000000000000  0.000000000000  0.000000000000  0.000000000000  0.000000000000  0.000000000000
 -4.148735490000  0.000000000000  0.000000000000  0.000000000000  0.000000000000  0.000000000000  0.000000000000
  6.072849430000  0.000000000000  0.000000000000  0.000000000000  0.000000000000  0.000000000000  0.000000000000
 23.740282700000  0.000000000000  0.000000000000  0.000000000000  0.000000000000  0.000000000000  0.000000000000
  1.292481220000  0.000000000000  0.000000000000  0.000000000000  0.000000000000  0.000000000000  0.000000000000
 -4.533393140000  0.000000000000  0.000000000000  0.000000000000  0.000000000000  0.000000000000  0.000000000000
  0.000000000000  7.008876270000  0.000000000000  0.000000000000  0.000000000000  0.000000000000  0.000000000000
  0.000000000000  2.893114190000  0.000000000000  0.000000000000  0.000000000000  0.000000000000  0.000000000000
  0.000000000000  0.000000000000  1.737208630000  0.000000000000  0.000000000000  0.000000000000  0.000000000000
  0.000000000000  0.000000000000  0.000000000000 -0.117923644000  0.000000000000  0.000000000000  0.000000000000
  0.000000000000  0.000000000000  0.000000000000  0.000000000000  0.164110504000  0.000000000000  0.000000000000
  0.000000000000  0.000000000000  0.000000000000  0.000000000000  0.000000000000  0.058787022900  0.000000000000
  0.000000000000  0.000000000000  0.000000000000  0.000000000000  0.000000000000  0.000000000000  0.086750376600
* p-type functions
    4    4
3.435201124000000000
1.287170684900000000
0.521713150500000000
0.217380479300000000
 73.016956900000  0.000000000000  0.000000000000  0.000000000000
  0.000000000000  9.725463310000  0.000000000000  0.000000000000
  0.000000000000  0.000000000000  1.750886280000  0.000000000000
  0.000000000000  0.000000000000  0.000000000000  0.020898811700
* d-type functions
    4    2
1.2654477000000000e1
4.695899000000000000
1.764819000000000000
0.666090000000000000
  0.087354170300  0.000000000000
  0.124974398000  0.000000000000
  0.060754688300  0.000000000000
  0.000000000000  0.005753858690
* f-type functions
    3    3
5.054140188700000000
1.943900072600000000
0.777560029000000000
  0.315859053000  0.000000000000  0.000000000000
  0.000000000000 -0.001552375060  0.000000000000
  0.000000000000  0.000000000000  0.004247520730
* g-type functions
    4    2
2.3216692000000000e1
7.848631000000000000
2.780198000000000000
1.000775000000000000
  0.130144217000  0.000000000000
  0.197652599000  0.000000000000
  0.089690616000  0.000000000000
  0.000000000000  0.012231439900

/Zn.def-TZVP.Eichkorn.17s4p4d3f4g.7s4p2d3f2g.
K. Eichkorn, F. Weigend, O. Treutler, R. Ahlrichs. Theor. Chem. Acc. 97 (1997) 119-124. doi:10.1007/s002140050244
ZINC (17s,4p,4d,3f,4g) -> [7s,4p,2d,3f,2g]
    30.0   4
* s-type functions
   17    7
1.8187965643000000e4
6.7929624100000000e3
2.6483044440000000e3
1.0764022670000000e3
4.5544819800000000e2
2.0026674600000000e2
9.1330088000000000e1
4.3098400000000000e1
2.0990965000000000e1
1.0521655000000000e1
5.410657000000000000
2.844773000000000000
1.523660000000000000
0.828110000000000000
0.454872000000000000
0.251463000000000000
0.139313000000000000
  3.097800610000  0.000000000000  0.000000000000  0.000000000000  0.000000000000  0.000000000000  0.000000000000
  4.977296950000  0.000000000000  0.000000000000  0.000000000000  0.000000000000  0.000000000000  0.000000000000
 15.807696400000  0.000000000000  0.000000000000  0.000000000000  0.000000000000  0.000000000000  0.000000000000
 26.379036700000  0.000000000000  0.000000000000  0.000000000000  0.000000000000  0.000000000000  0.000000000000
 23.609084500000  0.000000000000  0.000000000000  0.000000000000  0.000000000000  0.000000000000  0.000000000000
 -2.467281300000  0.000000000000  0.000000000000  0.000000000000  0.000000000000  0.000000000000  0.000000000000
  2.639296370000  0.000000000000  0.000000000000  0.000000000000  0.000000000000  0.000000000000  0.000000000000
 25.104485900000  0.000000000000  0.000000000000  0.000000000000  0.000000000000  0.000000000000  0.000000000000
  5.468362420000  0.000000000000  0.000000000000  0.000000000000  0.000000000000  0.000000000000  0.000000000000
 -6.645320100000  0.000000000000  0.000000000000  0.000000000000  0.000000000000  0.000000000000  0.000000000000
  0.000000000000  7.468630230000  0.000000000000  0.000000000000  0.000000000000  0.000000000000  0.000000000000
  0.000000000000  3.886216360000  0.000000000000  0.000000000000  0.000000000000  0.000000000000  0.000000000000
  0.000000000000  0.000000000000  2.044830110000  0.000000000000  0.000000000000  0.000000000000  0.000000000000
  0.000000000000  0.000000000000  0.000000000000 -0.150648118000  0.000000000000  0.000000000000  0.000000000000
  0.000000000000  0.000000000000  0.000000000000  0.000000000000  0.343233798000  0.000000000000  0.000000000000
  0.000000000000  0.000000000000  0.000000000000  0.000000000000  0.000000000000 -0.018670615100  0.000000000000
  0.000000000000  0.000000000000  0.000000000000  0.000000000000  0.000000000000  0.000000000000  0.092962898100
* p-type functions
    4    4
3.740628527280000000
1.401614406200000000
0.568099224305000000
0.236708010127000000
 -0.030365809100  0.000000000000  0.000000000000  0.000000000000
  0.000000000000  0.025303826300  0.000000000000  0.000000000000
  0.000000000000  0.000000000000 -0.009041822010  0.000000000000
  0.000000000000  0.000000000000  0.000000000000 -0.011411488500
* d-type functions
    4    2
1.3677864000000000e1
5.044626000000000000
1.879399000000000000
0.702440000000000000
 -0.007853244260  0.000000000000
  0.029265237100  0.000000000000
 -0.022838590000  0.000000000000
  0.000000000000  0.007093094430
* f-type functions
    3    3
6.756825876450000000
2.598779183250000000
1.039511673300000000
  0.002541882250  0.000000000000  0.000000000000
  0.000000000000  0.000534003087  0.000000000000
  0.000000000000  0.000000000000 -0.001399467140
* g-type functions
    4    2
2.3916047000000000e1
8.076353000000000000
2.850813000000000000
1.021666000000000000
 -0.002928342120  0.000000000000
 -0.007398906940  0.000000000000
  0.001062167480  0.000000000000
  0.000000000000 -0.001939350090

/Ga.def-TZVP.Eichkorn.16s4p4d1f.6s4p2d1f.
K. Eichkorn, F. Weigend, O. Treutler, R. Ahlrichs. Theor. Chem. Acc. 97 (1997) 119-124. doi:10.1007/s002140050244
GALLIUM (16s,4p,4d,1f) -> [6s,4p,2d,1f]
    31.0   3
* s-type functions
   16    6
1.7947039492000000e4
7.9221653640000000e3
3.5187774560000000e3
1.5719971960000000e3
7.0605046000000000e2
3.1867834200000000e2
1.4448013400000000e2
6.5766659000000000e1
3.0043212000000000e1
1.3766661000000000e1
6.324837000000000000
2.912083000000000000
1.343031000000000000
0.620138000000000000
0.286552000000000000
0.132441000000000000
  3.574303370000  0.000000000000  0.000000000000  0.000000000000  0.000000000000  0.000000000000
  3.393728880000  0.000000000000  0.000000000000  0.000000000000  0.000000000000  0.000000000000
 11.911422000000  0.000000000000  0.000000000000  0.000000000000  0.000000000000  0.000000000000
 22.050046500000  0.000000000000  0.000000000000  0.000000000000  0.000000000000  0.000000000000
 27.239754700000  0.000000000000  0.000000000000  0.000000000000  0.000000000000  0.000000000000
 11.388258600000  0.000000000000  0.000000000000  0.000000000000  0.000000000000  0.000000000000
 -7.604131320000  0.000000000000  0.000000000000  0.000000000000  0.000000000000  0.000000000000
 20.980172100000  0.000000000000  0.000000000000  0.000000000000  0.000000000000  0.000000000000
 18.860923300000  0.000000000000  0.000000000000  0.000000000000  0.000000000000  0.000000000000
 -8.464288280000  0.000000000000  0.000000000000  0.000000000000  0.000000000000  0.000000000000
  0.000000000000  7.230927970000  0.000000000000  0.000000000000  0.000000000000  0.000000000000
  0.000000000000  6.209586550000  0.000000000000  0.000000000000  0.000000000000  0.000000000000
  0.000000000000  0.000000000000  0.738754657000  0.000000000000  0.000000000000  0.000000000000
  0.000000000000  0.000000000000  0.000000000000  0.166078400000  0.000000000000  0.000000000000
  0.000000000000  0.000000000000  0.000000000000  0.000000000000  0.259084354000  0.000000000000
  0.000000000000  0.000000000000  0.000000000000  0.000000000000  0.000000000000  0.029632491300
* p-type functions
    4    4
1.900224000000000000
0.720994000000000000
0.293803000000000000
0.122751000000000000
  0.011496307100  0.000000000000  0.000000000000  0.000000000000
  0.000000000000 -0.011212268200  0.000000000000  0.000000000000
  0.000000000000  0.000000000000 -0.018819645200  0.000000000000
  0.000000000000  0.000000000000  0.000000000000 -0.012818535600
* d-type functions
    4    2
4.451944000000000000
1.564073000000000000
0.598386000000000000
0.235929000000000000
  0.026280100100  0.000000000000
 -0.032862086300  0.000000000000
  0.033142628500  0.000000000000
  0.000000000000  0.018024224800
* f-type functions
    1    1
0.378585000000000000
  0.010235245100

/Ge.def-TZVP.Eichkorn.16s4p5d1f1g.6s4p2d1f1g.
K. Eichkorn, F. Weigend, O. Treutler, R. Ahlrichs. Theor. Chem. Acc. 97 (1997) 119-124. doi:10.1007/s002140050244
GERMANIUM (16s,4p,5d,1f,1g) -> [6s,4p,2d,1f,1g]
    32.0   4
* s-type functions
   16    6
1.9411275634000000e4
8.6870388000000000e3
3.8981005100000000e3
1.7535351940000000e3
7.9062781000000000e2
3.5722447800000000e2
1.6170993400000000e2
7.3328517000000000e1
3.3301495000000000e1
1.5143375000000000e1
6.893868000000000000
3.141213000000000000
1.432316000000000000
0.653430000000000000
0.298189000000000000
0.136091000000000000
  3.709371340000  0.000000000000  0.000000000000  0.000000000000  0.000000000000  0.000000000000
  3.295481810000  0.000000000000  0.000000000000  0.000000000000  0.000000000000  0.000000000000
 11.960056100000  0.000000000000  0.000000000000  0.000000000000  0.000000000000  0.000000000000
 22.366984500000  0.000000000000  0.000000000000  0.000000000000  0.000000000000  0.000000000000
 28.668151900000  0.000000000000  0.000000000000  0.000000000000  0.000000000000  0.000000000000
 13.707660900000  0.000000000000  0.000000000000  0.000000000000  0.000000000000  0.000000000000
 -8.310085930000  0.000000000000  0.000000000000  0.000000000000  0.000000000000  0.000000000000
 20.813530500000  0.000000000000  0.000000000000  0.000000000000  0.000000000000  0.000000000000
 21.479338900000  0.000000000000  0.000000000000  0.000000000000  0.000000000000  0.000000000000
 -9.373421400000  0.000000000000  0.000000000000  0.000000000000  0.000000000000  0.000000000000
  0.000000000000  8.208649260000  0.000000000000  0.000000000000  0.000000000000  0.000000000000
  0.000000000000  6.993846440000  0.000000000000  0.000000000000  0.000000000000  0.000000000000
  0.000000000000  0.000000000000  0.507633042000  0.000000000000  0.000000000000  0.000000000000
  0.000000000000  0.000000000000  0.000000000000  0.189206481000  0.000000000000  0.000000000000
  0.000000000000  0.000000000000  0.000000000000  0.000000000000  0.288024909000  0.000000000000
  0.000000000000  0.000000000000  0.000000000000  0.000000000000  0.000000000000  0.080794449200
* p-type functions
    4    4
2.980620864000000000
1.116839352000000000
0.452674834000000000
0.188614514000000000
  1.000000000000  0.000000000000  0.000000000000  0.000000000000
  0.000000000000  1.000000000000  0.000000000000  0.000000000000
  0.000000000000  0.000000000000  1.000000000000  0.000000000000
  0.000000000000  0.000000000000  0.000000000000  1.000000000000
* d-type functions
    5    2
9.394730000000000000
3.210499000000000000
1.186945000000000000
0.461488000000000000
0.182571000000000000
 -0.023260255700  0.000000000000
  0.007833857240  0.000000000000
  0.008232803960  0.000000000000
 -0.047376403100  0.000000000000
  0.000000000000 -0.018559188100
* f-type functions
    1    1
0.449315000000000000
  1.000000000000
* g-type functions
    1    1
0.492000000000000000
  1.000000000000

/As.def-TZVP.Eichkorn.16s4p5d1f1g.6s4p2d1f1g.
K. Eichkorn, F. Weigend, O. Treutler, R. Ahlrichs. Theor. Chem. Acc. 97 (1997) 119-124. doi:10.1007/s002140050244
ARSENIC (16s,4p,5d,1f,1g) -> [6s,4p,2d,1f,1g]
    33.0   4
* s-type functions
   16    6
2.9520493490000000e4
1.2150794961000000e4
5.0859934520000000e3
2.1627573890000000e3
9.3335966000000000e2
4.0834374900000000e2
1.8090225000000000e2
8.1056698000000000e1
3.6688336000000000e1
1.6753736000000000e1
7.708595000000000000
3.568954000000000000
1.660427000000000000
0.775202000000000000
0.362678000000000000
0.169798000000000000
  2.394860050000  0.000000000000  0.000000000000  0.000000000000  0.000000000000  0.000000000000
  3.424473830000  0.000000000000  0.000000000000  0.000000000000  0.000000000000  0.000000000000
 10.510238400000  0.000000000000  0.000000000000  0.000000000000  0.000000000000  0.000000000000
 22.658953200000  0.000000000000  0.000000000000  0.000000000000  0.000000000000  0.000000000000
 31.594065800000  0.000000000000  0.000000000000  0.000000000000  0.000000000000  0.000000000000
 17.343838800000  0.000000000000  0.000000000000  0.000000000000  0.000000000000  0.000000000000
 -8.786269390000  0.000000000000  0.000000000000  0.000000000000  0.000000000000  0.000000000000
 20.569391300000  0.000000000000  0.000000000000  0.000000000000  0.000000000000  0.000000000000
 24.163303400000  0.000000000000  0.000000000000  0.000000000000  0.000000000000  0.000000000000
 -1.0342989300e1  0.000000000000  0.000000000000  0.000000000000  0.000000000000  0.000000000000
  0.000000000000  8.533245420000  0.000000000000  0.000000000000  0.000000000000  0.000000000000
  0.000000000000  8.251461610000  0.000000000000  0.000000000000  0.000000000000  0.000000000000
  0.000000000000  0.000000000000  0.277979240000  0.000000000000  0.000000000000  0.000000000000
  0.000000000000  0.000000000000  0.000000000000  0.218855088000  0.000000000000  0.000000000000
  0.000000000000  0.000000000000  0.000000000000  0.000000000000  0.455592819000  0.000000000000
  0.000000000000  0.000000000000  0.000000000000  0.000000000000  0.000000000000  0.115656903000
* p-type functions
    4    4
3.752047666500000000
1.405893160400000000
0.569833479420000000
0.237430616420000000
  1.000000000000  0.000000000000  0.000000000000  0.000000000000
  0.000000000000  1.000000000000  0.000000000000  0.000000000000
  0.000000000000  0.000000000000  1.000000000000  0.000000000000
  0.000000000000  0.000000000000  0.000000000000  1.000000000000
* d-type functions
    5    2
1.4408138000000000e1
4.759347000000000000
1.696573500000000000
0.635164000000000000
0.241979500000000000
  0.005378749090  0.000000000000
  0.000992576938  0.000000000000
 -0.004506445960  0.000000000000
  0.011982480700  0.000000000000
  0.000000000000  0.011847943400
* f-type functions
    1    1
0.535159817350000000
  1.000000000000
* g-type functions
    1    1
0.586000000000000000
  1.000000000000

/Se.def-TZVP.Eichkorn.16s4p5d1f1g.6s4p2d1f1g.
K. Eichkorn, F. Weigend, O. Treutler, R. Ahlrichs. Theor. Chem. Acc. 97 (1997) 119-124. doi:10.1007/s002140050244
SELENIUM (16s,4p,5d,1f,1g) -> [6s,4p,2d,1f,1g]
    34.0   4
* s-type functions
   16    6
2.8424079408000000e4
1.1965443031000000e4
5.1091277580000000e3
2.2108652190000000e3
9.6868087300000000e2
4.2933047100000000e2
1.9229577600000000e2
8.6951123000000000e1
3.9651109000000000e1
1.8215688000000000e1
8.421136000000000000
3.913329000000000000
1.825915000000000000
0.854427000000000000
0.400523000000000000
0.187860000000000000
  2.900977260000  0.000000000000  0.000000000000  0.000000000000  0.000000000000  0.000000000000
  3.550413080000  0.000000000000  0.000000000000  0.000000000000  0.000000000000  0.000000000000
 11.673497100000  0.000000000000  0.000000000000  0.000000000000  0.000000000000  0.000000000000
 23.722294700000  0.000000000000  0.000000000000  0.000000000000  0.000000000000  0.000000000000
 32.740778500000  0.000000000000  0.000000000000  0.000000000000  0.000000000000  0.000000000000
 17.285840600000  0.000000000000  0.000000000000  0.000000000000  0.000000000000  0.000000000000
 -9.072791300000  0.000000000000  0.000000000000  0.000000000000  0.000000000000  0.000000000000
 21.294042600000  0.000000000000  0.000000000000  0.000000000000  0.000000000000  0.000000000000
 25.920024300000  0.000000000000  0.000000000000  0.000000000000  0.000000000000  0.000000000000
 -1.1402843100e1  0.000000000000  0.000000000000  0.000000000000  0.000000000000  0.000000000000
  0.000000000000  9.353701290000  0.000000000000  0.000000000000  0.000000000000  0.000000000000
  0.000000000000  9.278359330000  0.000000000000  0.000000000000  0.000000000000  0.000000000000
  0.000000000000  0.000000000000 -0.119538164000  0.000000000000  0.000000000000  0.000000000000
  0.000000000000  0.000000000000  0.000000000000  0.365557539000  0.000000000000  0.000000000000
  0.000000000000  0.000000000000  0.000000000000  0.000000000000  0.579195182000  0.000000000000
  0.000000000000  0.000000000000  0.000000000000  0.000000000000  0.000000000000  0.133247676000
* p-type functions
    4    4
4.450829705572807000
1.667726958023383800
0.675959370145664700
0.281649737560693600
  1.000000000000  0.000000000000  0.000000000000  0.000000000000
  0.000000000000  1.000000000000  0.000000000000  0.000000000000
  0.000000000000  0.000000000000  1.000000000000  0.000000000000
  0.000000000000  0.000000000000  0.000000000000  1.000000000000
* d-type functions
    5    2
1.9421546000000000e1
6.308195000000000000
2.206202000000000000
0.808840000000000000
0.301388000000000000
  0.011229672500  0.000000000000
  0.026195408400  0.000000000000
 -0.038940252000  0.000000000000
  0.063570816600  0.000000000000
  0.000000000000  0.034212305400
* f-type functions
    1    1
0.617351598000000000
  1.000000000000
* g-type functions
    1    1
0.676000000000000000
  1.000000000000

/Br.def-TZVP.Eichkorn.16s4p5d1f1g.6s4p2d1f1g.
K. Eichkorn, F. Weigend, O. Treutler, R. Ahlrichs. Theor. Chem. Acc. 97 (1997) 119-124. doi:10.1007/s002140050244
BROMINE (16s,4p,5d,1f,1g) -> [6s,4p,2d,1f,1g]
    35.0   4
* s-type functions
   16    6
3.0913138639000000e4
1.0271903712000000e4
3.6133629220000000e3
1.3440697570000000e3
5.2784275700000000e2
2.1841776900000000e2
9.4991627000000000e1
4.3289016000000000e1
2.0596842000000000e1
1.0189127000000000e1
5.215762000000000000
2.748104000000000000
1.481679000000000000
0.812392000000000000
0.449999000000000000
0.250118000000000000
  2.924002530000  0.000000000000  0.000000000000  0.000000000000  0.000000000000  0.000000000000
  7.059248720000  0.000000000000  0.000000000000  0.000000000000  0.000000000000  0.000000000000
 21.303200000000  0.000000000000  0.000000000000  0.000000000000  0.000000000000  0.000000000000
 38.703707500000  0.000000000000  0.000000000000  0.000000000000  0.000000000000  0.000000000000
 25.772493100000  0.000000000000  0.000000000000  0.000000000000  0.000000000000  0.000000000000
 -8.804969540000  0.000000000000  0.000000000000  0.000000000000  0.000000000000  0.000000000000
 20.502381000000  0.000000000000  0.000000000000  0.000000000000  0.000000000000  0.000000000000
 29.276103600000  0.000000000000  0.000000000000  0.000000000000  0.000000000000  0.000000000000
 -1.2712771400e1  0.000000000000  0.000000000000  0.000000000000  0.000000000000  0.000000000000
  7.143373760000  0.000000000000  0.000000000000  0.000000000000  0.000000000000  0.000000000000
  0.000000000000 11.041716000000  0.000000000000  0.000000000000  0.000000000000  0.000000000000
  0.000000000000  2.444079810000  0.000000000000  0.000000000000  0.000000000000  0.000000000000
  0.000000000000  0.000000000000 -1.228023680000  0.000000000000  0.000000000000  0.000000000000
  0.000000000000  0.000000000000  0.000000000000  1.128220950000  0.000000000000  0.000000000000
  0.000000000000  0.000000000000  0.000000000000  0.000000000000  0.340990401000  0.000000000000
  0.000000000000  0.000000000000  0.000000000000  0.000000000000  0.000000000000  0.281849060000
* p-type functions
    4    4
5.247192867100000000
1.966124425600000000
0.796905166000000000
0.332043819100000000
  1.000000000000  0.000000000000  0.000000000000  0.000000000000
  0.000000000000  1.000000000000  0.000000000000  0.000000000000
  0.000000000000  0.000000000000  1.000000000000  0.000000000000
  0.000000000000  0.000000000000  0.000000000000  1.000000000000
* d-type functions
    5    2
7.988874000000000000
3.342008000000000000
1.457184000000000000
0.651900000000000000
0.294193000000000000
 -0.055129157100  0.000000000000
  0.057880128200  0.000000000000
 -0.027826851600  0.000000000000
 -0.064904894000  0.000000000000
  0.000000000000 -0.019114318900
* f-type functions
    1    1
0.710502283100000000
  1.000000000000
* g-type functions
    1    1
0.778000000000000000
  1.000000000000

