************************************************************************
* This file is part of OpenMolcas.                                     *
*                                                                      *
* OpenMolcas is free software; you can redistribute it and/or modify   *
* it under the terms of the GNU Lesser General Public License, v. 2.1. *
* OpenMolcas is distributed in the hope that it will be useful, but it *
* is provided "as is" and without any express or implied warranties.   *
* For more details see the full text of the license in the file        *
* LICENSE or in <http://www.gnu.org/licenses/>.                        *
************************************************************************
/Ba.def-SVP..9s3p3d2f1g.6s3p3d2f1g.
Reference none
BA       (9s3p3d2f1g) -> [6s3p3d2f1g]

	56.000000 4
* S-type functions
    9 6
        14.467177
        6.875177
        3.372674
        1.700928
        0.877984
        0.461635
        0.245995
        0.132154
        0.071190
 .130957159D+00 0.0 0.0 0.0 0.0 0.0
 -.734273800D+00 0.0 0.0 0.0 0.0 0.0
 .234747488D+01 0.0 0.0 0.0 0.0 0.0
 -.392482479D+01 0.0 0.0 0.0 0.0 0.0
 0.0 .193509913D+01 0.0 0.0 0.0 0.0
 0.0 0.0 .857115562D+00 0.0 0.0 0.0
 0.0 0.0 0.0 -.116453617D-02 0.0 0.0
 0.0 0.0 0.0 0.0 .125144196D-01 0.0
 0.0 0.0 0.0 0.0 0.0 .894077998D-01
* P-type functions
    3 3
        0.279332
        0.126838
        0.058468
 -.328632219D-01 0.0 0.0
 0.0 .152121004D-01 0.0
 0.0 0.0 -.749833036D-02
* D-type functions
    3 3
        0.434086
        0.189613
        0.085481
 .165108432D-02 0.0 0.0
 0.0 .153774874D-02 0.0
 0.0 0.0 -.144012147D-02
* F-type functions
    2 2
        0.417391
        0.235865
 -.264557982D-01 0.0
 0.0 .156936669D-01
* G-type functions
    1 1
        0.310626
 1.000000

/Cs.def-SVP..9s4p4d.5s2p2d.
Reference none
CS       (9s4p4d) -> [5s2p2d]

	55.000000 2
* S-type functions
    9 5
        14.755958
        6.788163
        3.181646
        1.515437
        0.731519
        0.356844
        0.175398
        0.086607
        0.042830
 .336058092D-01 0.0 0.0 0.0 0.0
 -.244031637D+00 0.0 0.0 0.0 0.0
 .105199627D+01 0.0 0.0 0.0 0.0
 -.223380044D+01 0.0 0.0 0.0 0.0
 .125734914D+01 0.0 0.0 0.0 0.0
 0.0 .749269629D+00 0.0 0.0 0.0
 0.0 0.0 -.290437353D-01 0.0 0.0
 0.0 0.0 0.0 .348555985D-01 0.0
 0.0 0.0 0.0 0.0 .180660709D-01
* P-type functions
    4 2
        0.430364
        0.212969
        0.106011
        0.052874
 -.116387605D-01 0.0
 .148786055D-01 0.0
 .179887707D-03 0.0
 0.0 -.106744598D-01
* D-type functions
    4 2
        0.551358
        0.273816
        0.137921
        0.069803
 -.509959069D-03 0.0
 .344600329D-04 0.0
 -.183995192D-02 0.0
 0.0 .349410900D-02

/Rb.def-SVP..8s4p4d.5s2p2d.
Reference none
RB       (8s4p4d) -> [5s2p2d]

	37.000000 2
* S-type functions
    8 5
        10.887215
        4.964761
        2.300073
        1.079645
        0.512038
        0.244655
        0.117424
        0.056443
 -.155022448D+00 0.0 0.0 0.0 0.0
 .113800526D+01 0.0 0.0 0.0 0.0
 -.311889651D+01 0.0 0.0 0.0 0.0
 .201338928D+01 0.0 0.0 0.0 0.0
 0.0 .126605968D+01 0.0 0.0 0.0
 0.0 0.0 .394984034D-01 0.0 0.0
 0.0 0.0 0.0 .608858904D-02 0.0
 0.0 0.0 0.0 0.0 .491378587D-01
* P-type functions
    4 2
        0.555272
        0.269118
        0.131018
        0.063880
 -.120675177D-01 0.0
 .151724916D-01 0.0
 .265972280D-03 0.0
 0.0 -.123742067D-01
* D-type functions
    4 2
        0.716440
        0.354937
        0.178820
        0.090602
 -.663118834D-03 0.0
 .618131232D-03 0.0
 -.258232701D-02 0.0
 0.0 .382907821D-02

/Sr.def-SVP..9s3p3d2f1g.6s3p3d2f1g.
Reference none
SR       (9s3p3d2f1g) -> [6s3p3d2f1g]

	38.000000 4
* S-type functions
    9 6
        10.832918
        5.307356
        2.671821
        1.377129
        0.723939
        0.386550
        0.208744
        0.113500
        0.061854
 -.178354895D+00 0.0 0.0 0.0 0.0 0.0
 .125330950D+01 0.0 0.0 0.0 0.0 0.0
 -.297510301D+01 0.0 0.0 0.0 0.0 0.0
 .133916387D+01 0.0 0.0 0.0 0.0 0.0
 0.0 .139362421D+01 0.0 0.0 0.0 0.0
 0.0 0.0 .782183552D-01 0.0 0.0 0.0
 0.0 0.0 0.0 .327528508D-01 0.0 0.0
 0.0 0.0 0.0 0.0 .365487145D-01 0.0
 0.0 0.0 0.0 0.0 0.0 .233421177D-01
* P-type functions
    3 3
        0.404743
        0.200639
        0.099471
 -.400369830D-01 0.0 0.0
 0.0 .251461451D-01 0.0
 0.0 0.0 -.154028500D-01
* D-type functions
    3 3
        2.585350
        1.314459
        0.675328
 -.363898119D-02 0.0 0.0
 0.0 .948669390D-02 0.0
 0.0 0.0 -.285307039D-02
* F-type functions
    2 2
        2.981656
        1.073964
 .196462794D-03 0.0
 0.0 -.158314673D-01
* G-type functions
    1 1
        0.166635
 1.000000

/Tc.def-SVP..8s4p4d3f4g.6s4p3d3f2g.
Reference none
TC       (8s4p4d3f4g) -> [6s4p3d3f2g]

	43.000000 4
* S-type functions
    8 6
        16.903676
        8.241886
        4.018586
        1.959389
        0.955364
        0.465820
        0.227126
        0.110743
 -.379780686D+00 0.0 0.0 0.0 0.0 0.0
 .247470368D+01 0.0 0.0 0.0 0.0 0.0
 -.610052739D+01 0.0 0.0 0.0 0.0 0.0
 0.0 .388588044D+01 0.0 0.0 0.0 0.0
 0.0 0.0 .167737847D+01 0.0 0.0 0.0
 0.0 0.0 0.0 .245015371D+00 0.0 0.0
 0.0 0.0 0.0 0.0 .199706633D+00 0.0
 0.0 0.0 0.0 0.0 0.0 .655486483D-01
* P-type functions
    4 4
        1.4059842
        0.5268226
        0.2135305
        0.0889710
 1.0 0.0 0.0 0.0
 0.0 1.0 0.0 0.0
 0.0 0.0 1.0 0.0
 0.0 0.0 0.0 1.0
* D-type functions
    4 3
        4.1346080000
        1.4743095000
        .58566900000
        .24199200000
 -.243685431D-02 0.0 0.0
 .142780952D-01 0.0 0.0
 0.0 .523726415D-02 0.0
 0.0 0.0 -.496624990D-01
* F-type functions
    3 3
        1.7781922986
        0.68392011
        0.27356804
 1.0 0.0 0.0
 0.0 1.0 0.0
 0.0 0.0 1.0
* G-type functions
    4 2
        4.921811
        1.978095
        0.931001
        0.464677
 .727130796D-02 0.0
 .283252777D-01 0.0
 .781631436D-02 0.0
 0.0 .516162290D-02

/Xe.def-SVP..8s3p3d1f1g.5s3p2d1f1g.
Reference none
XE       (8s3p3d1f1g) -> [5s3p2d1f1g]

	54.000000 4
* S-type functions
    8 5
        13.570092
        6.094017
        2.933481
        1.500368
        0.806602
        0.450061
        0.256962
        0.147859
 .257381933D-01 0.0 0.0 0.0 0.0
 -.216131842D+00 0.0 0.0 0.0 0.0
 .943747606D+00 0.0 0.0 0.0 0.0
 -.168889682D+01 0.0 0.0 0.0 0.0
 0.0 .313162387 0.0 0.0 0.0
 0.0 0.0 .917310829 0.0 0.0
 0.0 0.0 0.0 .172083486 0.0
 0.0 0.0 0.0 0.0 .458655785D-01
* P-type functions
    3 3
        1.219576
        0.486856
        0.202856
 1.000000 0.0 0.0
 0.0 1.000000 0.0
 0.0 0.0 1.000000
* D-type functions
    3 2
        1.461023
        0.543002
        0.202307
 .170703184D-01 0.0
 -.105507657 0.0
 0.0 .317570233D-02
* F-type functions
    1 1
        .48584474
 1.000000
* G-type functions
    1 1
        0.5320000
 1.000000

