************************************************************************
* This file is part of OpenMolcas.                                     *
*                                                                      *
* OpenMolcas is free software; you can redistribute it and/or modify   *
* it under the terms of the GNU Lesser General Public License, v. 2.1. *
* OpenMolcas is distributed in the hope that it will be useful, but it *
* is provided "as is" and without any express or implied warranties.   *
* For more details see the full text of the license in the file        *
* LICENSE or in <http://www.gnu.org/licenses/>.                        *
************************************************************************
/Al.SVP..12s4p5d1f.5s3p2d1f.
Reference none
AL       (12s4p5d1f) -> [5s3p2d1f]

	13.000000 3
* S-type functions
    12 5
        2838.128794
        1055.505258
        400.895672
        155.220479
        61.145855
        24.456357
        9.910292
        4.059531
        1.677074
        0.697078
        0.290810
        0.121471
 .989014662D+00 0.0 0.0 0.0 0.0
 .174006712D+01 0.0 0.0 0.0 0.0
 .512581286D+01 0.0 0.0 0.0 0.0
 .824241456D+01 0.0 0.0 0.0 0.0
 .486552632D+01 0.0 0.0 0.0 0.0
 -.109354000D+01 0.0 0.0 0.0 0.0
 .223516080D+01 0.0 0.0 0.0 0.0
 .386939384D+01 0.0 0.0 0.0 0.0
 0.0 .537999440D+00 0.0 0.0 0.0
 0.0 0.0 -.104401896D+00 0.0 0.0
 0.0 0.0 0.0 .204070572D+00 0.0
 0.0 0.0 0.0 0.0 .821408896D-01
* P-type functions
    4 3
        0.934868
        0.345754
        0.138538
        0.057097
 -.361592538D-02 0.0 0.0
 -.722039941D-02 0.0 0.0
 0.0 -.346815869D-01 0.0
 0.0 0.0 -.216465439D-03
* D-type functions
    5 2
        15.369612
        4.052294
        1.241444
        0.421258
        0.148264
 .185079769D-01 0.0
 .294448103D-03 0.0
 -.899571884D-02 0.0
 .321560555D-01 0.0
 0.0 .214855991D-01
* F-type functions
    1 1
        0.500348
 .195741334D-01

/Ar.SVP..12s6p5d1f.5s3p2d1f.
Reference none
AR       (12s6p5d1f) -> [5s3p2d1f]

	18.000000 3
* S-type functions
    12 5
        4620.804035
        1374.292050
        446.448228
        158.082893
        60.803449
        25.276226
        11.278409
        5.353915
        2.674381
        1.387717
        0.737233
        0.394795
 .213523201D+01 0.0 0.0 0.0 0.0
 .565223447D+01 0.0 0.0 0.0 0.0
 .141027177D+02 0.0 0.0 0.0 0.0
 .120399277D+02 0.0 0.0 0.0 0.0
 -.124701561D+01 0.0 0.0 0.0 0.0
 .260119316D+01 0.0 0.0 0.0 0.0
 .870461044D+01 0.0 0.0 0.0 0.0
 .225190285D+01 0.0 0.0 0.0 0.0
 0.0 -.199771329D+01 0.0 0.0 0.0
 0.0 0.0 .137290316D+01 0.0 0.0
 0.0 0.0 0.0 .569690476D+00 0.0
 0.0 0.0 0.0 0.0 .512919924D+00
* P-type functions
    6 3
        63.195331
        21.432525
        7.9128521
        3.1188043
        1.2811989
        0.53383290
 .385526910D-02 0.0 0.0
 -.756289758D-02 0.0 0.0
 .110643246D-01 0.0 0.0
 -.163324337D-01 0.0 0.0
 0.0 .214023672D-01 0.0
 0.0 0.0 -.150461461D-01
* D-type functions
    5 2
        89.7664005
        23.2156985
        6.69329640
        2.07246860
        0.657926540
 -.249127369D-02 0.0
 -.370476772D-02 0.0
 .247794622D-02 0.0
 -.304044879D-02 0.0
 0.0 -.882789874D-02
* F-type functions
    1 1
        1.39199999
 -.947751065D-03

/As.SVP..16s4p5d1f1g.6s4p2d1f1g.
Reference none
AS       (16s4p5d1f1g) -> [6s4p2d1f1g]

	33.000000 4
* S-type functions
    16 6
        29520.493490
        12150.794961
        5085.993452
        2162.757389
        933.359660
        408.343749
        180.902250
        81.056698
        36.688336
        16.753736
        7.708595
        3.568954
        1.660427
        0.775202
        0.362678
        0.169798
 .239486005D+01 0.0 0.0 0.0 0.0 0.0
 .342447383D+01 0.0 0.0 0.0 0.0 0.0
 .105102384D+02 0.0 0.0 0.0 0.0 0.0
 .226589532D+02 0.0 0.0 0.0 0.0 0.0
 .315940658D+02 0.0 0.0 0.0 0.0 0.0
 .173438388D+02 0.0 0.0 0.0 0.0 0.0
 -.878626939D+01 0.0 0.0 0.0 0.0 0.0
 .205693913D+02 0.0 0.0 0.0 0.0 0.0
 .241633034D+02 0.0 0.0 0.0 0.0 0.0
 -.103429893D+02 0.0 0.0 0.0 0.0 0.0
 0.0 .853324542D+01 0.0 0.0 0.0 0.0
 0.0 .825146161D+01 0.0 0.0 0.0 0.0
 0.0 0.0 .277979240D+00 0.0 0.0 0.0
 0.0 0.0 0.0 .218855088D+00 0.0 0.0
 0.0 0.0 0.0 0.0 .455592819D+00 0.0
 0.0 0.0 0.0 0.0 0.0 .115656903D+00
* P-type functions
    4 4
        3.7520476665
        1.4058931604
        0.56983347942
        0.23743061642
 1.0 0.0 0.0 0.0
 0.0 1.0 0.0 0.0
 0.0 0.0 1.0 0.0
 0.0 0.0 0.0 1.0
* D-type functions
    5 2
        14.408138000
        4.759347000
        1.696573500
        .6351640000
        .2419795000
 .537874909D-02 0.0
 .992576938D-03 0.0
 -.450644596D-02 0.0
 .119824807D-01 0.0
 0.0 .118479434D-01
* F-type functions
    1 1
        .53515981735
 1.0
* G-type functions
    1 1
        .586
 1.0

/B.SVP..8s3p3d1f.6s3p3d1f.
Reference none
B       (8s3p3d1f) -> [6s3p3d1f]

	5.000000 3
* S-type functions
    8 6
        284.826800
        84.010592
        26.364919
        8.731219
        3.021338
        1.080144
        0.393990
        0.144689
 .361958329D+00 0.0 0.0 0.0 0.0 0.0
 .893620823D+00 0.0 0.0 0.0 0.0 0.0
 .209865056D+01 0.0 0.0 0.0 0.0 0.0
 0.0 .134494598D+01 0.0 0.0 0.0 0.0
 0.0 0.0 -.380861400D-01 0.0 0.0 0.0
 0.0 0.0 0.0 .341374402D-01 0.0 0.0
 0.0 0.0 0.0 0.0 .299436044D+00 0.0
 0.0 0.0 0.0 0.0 0.0 .376169281D-01
* P-type functions
    3 3
        1.222976
        0.494853
        0.208793
 -.176750209D-01 0.0 0.0
 0.0 -.772345834D-02 0.0
 0.0 0.0 -.431752162D-01
* D-type functions
    3 3
        2.401898
        0.764497
        0.257494
 .343467560D-01 0.0 0.0
 0.0 .561736269D-01 0.0
 0.0 0.0 .216339552D-01
* F-type functions
    1 1
        0.913067
 .279246526D-01

/Be.SVP..8s2p2d1f.6s2p2d1f.
Reference none
BE       (8s2p2d1f) -> [6s2p2d1f]

	4.000000 3
* S-type functions
    8 6
        192.462031
        60.770566
        20.401151
        7.222255
        2.669995
        1.019315
        0.396920
        0.155597
 .228499912D+00 0.0 0.0 0.0 0.0 0.0
 .504070208D+00 0.0 0.0 0.0 0.0 0.0
 .125469412D+01 0.0 0.0 0.0 0.0 0.0
 0.0 .112042389D+01 0.0 0.0 0.0 0.0
 0.0 0.0 .211711851D+00 0.0 0.0 0.0
 0.0 0.0 0.0 -.838709012D-01 0.0 0.0
 0.0 0.0 0.0 0.0 .101492285D+00 0.0
 0.0 0.0 0.0 0.0 0.0 .923380018D-01
* P-type functions
    2 2
        3.734251
        1.113026
 -.335559307D-01 0.0
 0.0 .107784009D-01
* D-type functions
    2 2
        0.918714
        0.355682
 -.415890587D-02 0.0
 0.0 -.308927771D-01
* F-type functions
    1 1
        0.395370
 1.000000

/Br.SVP..16s4p5d1f1g.6s4p2d1f1g.
Reference none
BR       (16s4p5d1f1g) -> [6s4p2d1f1g]

	35.000000 4
* S-type functions
    16 6
        30913.138639
        10271.903712
        3613.362922
        1344.069757
        527.842757
        218.417769
        94.991627
        43.289016
        20.596842
        10.189127
        5.215762
        2.748104
        1.481679
        0.812392
        0.449999
        0.250118
 .292400253D+01 0.0 0.0 0.0 0.0 0.0
 .705924872D+01 0.0 0.0 0.0 0.0 0.0
 .213032000D+02 0.0 0.0 0.0 0.0 0.0
 .387037075D+02 0.0 0.0 0.0 0.0 0.0
 .257724931D+02 0.0 0.0 0.0 0.0 0.0
 -.880496954D+01 0.0 0.0 0.0 0.0 0.0
 .205023810D+02 0.0 0.0 0.0 0.0 0.0
 .292761036D+02 0.0 0.0 0.0 0.0 0.0
 -.127127714D+02 0.0 0.0 0.0 0.0 0.0
 .714337376D+01 0.0 0.0 0.0 0.0 0.0
 0.0 .110417160D+02 0.0 0.0 0.0 0.0
 0.0 .244407981D+01 0.0 0.0 0.0 0.0
 0.0 0.0 -.122802368D+01 0.0 0.0 0.0
 0.0 0.0 0.0 .112822095D+01 0.0 0.0
 0.0 0.0 0.0 0.0 .340990401D+00 0.0
 0.0 0.0 0.0 0.0 0.0 .281849060D+00
* P-type functions
    4 4
        5.2471928671
        1.9661244256
        0.7969051660
        0.3320438191
 1.0 0.0 0.0 0.0
 0.0 1.0 0.0 0.0
 0.0 0.0 1.0 0.0
 0.0 0.0 0.0 1.0
* D-type functions
    5 2
        7.988874
        3.342008
        1.457184
        0.651900
        0.294193
 -.551291571D-01 0.0
 .578801282D-01 0.0
 -.278268516D-01 0.0
 -.649048940D-01 0.0
 0.0 -.191143189D-01
* F-type functions
    1 1
        .7105022831
 1.00
* G-type functions
    1 1
        0.778000000
 1.00

/Ca.SVP..16s4p4d1f.6s2p2d1f.
Reference none
CA       (16s4p4d1f) -> [6s2p2d1f]

	20.000000 3
* S-type functions
    16 6
        17876.402675
        6236.156172
        2269.451069
        860.305771
        339.124911
        138.728914
        58.758976
        25.701108
        11.575531
        5.351257
        2.530407
        1.219348
        0.596422
        0.294900
        0.146770
        0.073207
 .601608653D+00 0.0 0.0 0.0 0.0 0.0
 .133992384D+01 0.0 0.0 0.0 0.0 0.0
 .453385725D+01 0.0 0.0 0.0 0.0 0.0
 .106237411D+02 0.0 0.0 0.0 0.0 0.0
 .162301910D+02 0.0 0.0 0.0 0.0 0.0
 .740879611D+01 0.0 0.0 0.0 0.0 0.0
 -.285661768D+01 0.0 0.0 0.0 0.0 0.0
 .708295526D+01 0.0 0.0 0.0 0.0 0.0
 .103282304D+02 0.0 0.0 0.0 0.0 0.0
 -.193881247D+01 0.0 0.0 0.0 0.0 0.0
 0.0 .111971433D+00 0.0 0.0 0.0 0.0
 0.0 .216692993D+01 0.0 0.0 0.0 0.0
 0.0 0.0 .343451639D+00 0.0 0.0 0.0
 0.0 0.0 0.0 -.374997261D-01 0.0 0.0
 0.0 0.0 0.0 0.0 .550968360D-01 0.0
 0.0 0.0 0.0 0.0 0.0 .589436145D-01
* P-type functions
    4 2
        7.358495
        3.441177
        1.944200
        1.180326
 .125595444D-01 0.0
 -.446690721D-01 0.0
 .722831444D-01 0.0
 0.0 -.348937159D-01
* D-type functions
    4 2
        0.522262
        0.201451
        0.090202
        0.042677
 -.766335102D-02 0.0
 .121549899D-01 0.0
 .173919706D-02 0.0
 0.0 -.459017664D-03
* F-type functions
    1 1
        0.147843
 .384802960D-02

/Cl.SVP..12s6p5d1f1g.5s3p2d1f1g.
Reference none
CL       (12s6p5d1f1g) -> [5s3p2d1f1g]

	17.000000 4
* S-type functions
    12 5
        4097.080409
        1203.083193
        386.280948
        135.337690
        51.567046
        21.261034
        9.420135
        4.445228
        2.209399
        1.141575
        0.604182
        0.322378
 .198054511D+01 0.0 0.0 0.0 0.0
 .530973450D+01 0.0 0.0 0.0 0.0
 .132352655D+02 0.0 0.0 0.0 0.0
 .107149960D+02 0.0 0.0 0.0 0.0
 -.132565114D+01 0.0 0.0 0.0 0.0
 .271180364D+01 0.0 0.0 0.0 0.0
 .754640511D+01 0.0 0.0 0.0 0.0
 .173603618D+01 0.0 0.0 0.0 0.0
 0.0 -.140197496D+01 0.0 0.0 0.0
 0.0 0.0 .982719736D+00 0.0 0.0
 0.0 0.0 0.0 .464178589D+00 0.0
 0.0 0.0 0.0 0.0 .369336889D+00
* P-type functions
    6 3
        51.8499902611
        17.5847835188
        6.49227239618
        2.55889114714
        1.05118767781
        .437994865757
 .359335506D-01 0.0 0.0
 -.869599318D-01 0.0 0.0
 .721211200D-01 0.0 0.0
 -.634201864D-01 0.0 0.0
 0.0 .264152293D-01 0.0
 0.0 0.0 -.197670692D-01
* D-type functions
    5 2
        34.705550
        10.704427
        3.568067
        1.249848
        0.445360
 -.548703710D-01 0.0
 -.619019402D-02 0.0
 .337450480D-01 0.0
 -.905232209D-01 0.0
 0.0 .418680075D-01
* F-type functions
    1 1
        1.1872146118
 1.0000000
* G-type functions
    1 1
        1.30000000
 1.0000000

/Co.SVP..16s4p4d3f4g.6s4p3d3f2g.
Reference none
CO       (16s4p4d3f4g) -> [6s4p3d3f2g]

	27.000000 4
* S-type functions
    16 6
        14890.776638
        5011.338626
        1782.882569
        669.729414
        265.210184
        110.487719
        48.304083
        22.094874
        10.536499
        5.216983
        2.669599
        1.404547
        0.755521
        0.413011
        0.228000
        0.126280
 .252008475D+01 0.0 0.0 0.0 0.0 0.0
 .576161793D+01 0.0 0.0 0.0 0.0 0.0
 .166061460D+02 0.0 0.0 0.0 0.0 0.0
 .266472668D+02 0.0 0.0 0.0 0.0 0.0
 .129329970D+02 0.0 0.0 0.0 0.0 0.0
 -.560012488D+01 0.0 0.0 0.0 0.0 0.0
 .154643586D+02 0.0 0.0 0.0 0.0 0.0
 .159290012D+02 0.0 0.0 0.0 0.0 0.0
 -.615264331D+01 0.0 0.0 0.0 0.0 0.0
 .265789949D+01 0.0 0.0 0.0 0.0 0.0
 0.0 .446962773D+01 0.0 0.0 0.0 0.0
 0.0 .150204712D+01 0.0 0.0 0.0 0.0
 0.0 0.0 .211924875D+00 0.0 0.0 0.0
 0.0 0.0 0.0 .110556886D+00 0.0 0.0
 0.0 0.0 0.0 0.0 .104164931D+00 0.0
 0.0 0.0 0.0 0.0 0.0 .582538736D-01
* P-type functions
    4 4
        3.2382541572
        1.2133746092
        0.4918022897
        0.2049176207
 1.0 0.0 0.0 0.0
 0.0 1.0 0.0 0.0
 0.0 0.0 1.0 0.0
 0.0 0.0 0.0 1.0
* D-type functions
    4 3
        10.705102
        4.051880
        1.541125
        0.587120
 .731129361D-01 0.0 0.0
 .123715481D+00 0.0 0.0
 0.0 .541679485D-01 0.0
 0.0 0.0 .611389357D-02
* F-type functions
    3 3
        0.8003001948
        2.0007504871
        5.2019512665
 1.0 0.0 0.0
 0.0 1.0 0.0
 0.0 0.0 1.0
* G-type functions
    4 2
        20.350361
        6.890388
        2.511990
        0.939816
 .148919677D+00 0.0
 .248183679D+00 0.0
 .130751255D+00 0.0
 0.0 .273914584D-01

/Cr.SVP..16s4p4d3f4g.6s4p2d3f2g.
Reference none
CR       (16s4p4d3f4g) -> [6s4p2d3f2g]

	24.000000 4
* S-type functions
    16 6
        12542.697207
        4376.165941
        1604.412320
        617.250509
        248.765032
        104.809678
        46.050145
        21.039463
        9.962928
        4.871698
        2.449796
        1.261203
        0.661526
        0.351717
        0.188542
        0.101349
 .193966091D+01 0.0 0.0 0.0 0.0 0.0
 .407787870D+01 0.0 0.0 0.0 0.0 0.0
 .120402822D+02 0.0 0.0 0.0 0.0 0.0
 .209147108D+02 0.0 0.0 0.0 0.0 0.0
 .145667269D+02 0.0 0.0 0.0 0.0 0.0
 -.348121298D+01 0.0 0.0 0.0 0.0 0.0
 .620608733D+01 0.0 0.0 0.0 0.0 0.0
 .167846463D+02 0.0 0.0 0.0 0.0 0.0
 -.100088521D+01 0.0 0.0 0.0 0.0 0.0
 -.162195460D+01 0.0 0.0 0.0 0.0 0.0
 0.0 .398680666D+01 0.0 0.0 0.0 0.0
 0.0 .133916495D+01 0.0 0.0 0.0 0.0
 0.0 0.0 .422336725D+00 0.0 0.0 0.0
 0.0 0.0 0.0 -.695354174D-01 0.0 0.0
 0.0 0.0 0.0 0.0 .110457729D+00 0.0
 0.0 0.0 0.0 0.0 0.0 .606521294D-01
* P-type functions
    4 4
        2.72072804640373000
        1.01945745144024635
        0.413204219941734119
        0.172168424975722545
 1.0 0.0 0.0 0.0
 0.0 1.0 0.0 0.0
 0.0 0.0 1.0 0.0
 0.0 0.0 0.0 1.0
* D-type functions
    4 2
        7.578932
        2.804210
        1.109089
        0.448972
 .148940709D+00 0.0
 .270560333D+00 0.0
 .132172861D+00 0.0
 0.0 .171927553D-01
* F-type functions
    3 3
        2.85945066042999985
        1.09978871554999991
        0.439915486219999985
 1.0 0.0 0.0
 0.0 1.0 0.0
 0.0 0.0 1.0
* G-type functions
    4 2
        13.479924
        4.616358
        1.707146
        0.648569
 .114400799D+00 0.0
 .187498126D+00 0.0
 .101292490D+00 0.0
 0.0 .146129292D-01

/Cu.SVP..17s4p4d3f4g.7s4p2d3f2g.
Reference none
CU       (17s4p4d3f4g) -> [7s4p2d3f2g]

	29.000000 4
* S-type functions
    17 7
        18942.626000
        6692.607176
        2487.169496
        971.191064
        397.920661
        170.781026
        76.618887
        35.844205
        17.435980
        8.790108
        4.575692
        2.449357
        1.342247
        0.749382
        0.424079
        0.241964
        0.138436
 .257075800D+01 0.0 0.0 0.0 0.0 0.0 0.0
 .493087859D+01 0.0 0.0 0.0 0.0 0.0 0.0
 .154159538D+02 0.0 0.0 0.0 0.0 0.0 0.0
 .265746865D+02 0.0 0.0 0.0 0.0 0.0 0.0
 .215879180D+02 0.0 0.0 0.0 0.0 0.0 0.0
 -.414873549D+01 0.0 0.0 0.0 0.0 0.0 0.0
 .607284943D+01 0.0 0.0 0.0 0.0 0.0 0.0
 .237402827D+02 0.0 0.0 0.0 0.0 0.0 0.0
 .129248122D+01 0.0 0.0 0.0 0.0 0.0 0.0
 -.453339314D+01 0.0 0.0 0.0 0.0 0.0 0.0
 0.0 .700887627D+01 0.0 0.0 0.0 0.0 0.0
 0.0 .289311419D+01 0.0 0.0 0.0 0.0 0.0
 0.0 0.0 .173720863D+01 0.0 0.0 0.0 0.0
 0.0 0.0 0.0 -.117923644D+00 0.0 0.0 0.0
 0.0 0.0 0.0 0.0 .164110504D+00 0.0 0.0
 0.0 0.0 0.0 0.0 0.0 .587870229D-01 0.0
 0.0 0.0 0.0 0.0 0.0 0.0 .867503766D-01
* P-type functions
    4 4
        3.4352011240
        1.2871706849
        0.5217131505
        0.2173804793
 .730169569D+02 0.0 0.0 0.0
 0.0 .972546331D+01 0.0 0.0
 0.0 0.0 .175088628D+01 0.0
 0.0 0.0 0.0 .208988117D-01
* D-type functions
    4 2
        12.654477
        4.695899
        1.764819
        0.666090
 .873541703D-01 0.0
 .124974398D+00 0.0
 .607546883D-01 0.0
 0.0 .575385869D-02
* F-type functions
    3 3
        5.0541401887
        1.9439000726
        0.7775600290
 .315859053D+00 0.0 0.0
 0.0 -.155237506D-02 0.0
 0.0 0.0 .424752073D-02
* G-type functions
    4 2
        23.216692
        7.848631
        2.780198
        1.000775
 .130144217D+00 0.0
 .197652599D+00 0.0
 .896906160D-01 0.0
 0.0 .122314399D-01

/F.SVP..8s3p4d1f.6s3p4d1f.
Reference none
F       (8s3p4d1f) -> [6s3p4d1f]

	9.000000 3
* S-type functions
    8 6
        1076.720723
        339.029639
        110.587439
        37.165087
        12.791453
        4.479767
        1.585570
        0.563193
 .740370863D+00 0.0 0.0 0.0 0.0 0.0
 .182166092D+01 0.0 0.0 0.0 0.0 0.0
 .472161217D+01 0.0 0.0 0.0 0.0 0.0
 0.0 .429861898D+01 0.0 0.0 0.0 0.0
 0.0 0.0 -.713210108D-01 0.0 0.0 0.0
 0.0 0.0 0.0 .577707363D+00 0.0 0.0
 0.0 0.0 0.0 0.0 .158512555D+01 0.0
 0.0 0.0 0.0 0.0 0.0 .336676231D+00
* P-type functions
    3 3
        4.7315641513
        1.8888479646
        .78701998526
 -.611298764D-01 0.0 0.0
 0.0 .339821526D-01 0.0
 0.0 0.0 -.473254739D-01
* D-type functions
    4 4
        23.185570
        6.682483
        2.167677
        0.733849
 -.410642118D-01 0.0 0.0 0.0
 0.0 -.133270131D+00 0.0 0.0
 0.0 0.0 -.123502519D+00 0.0
 0.0 0.0 0.0 -.319503914D-01
* F-type functions
    1 1
        2.557077625
 1.00

/Fe.SVP..16s4p4d3f4g.6s4p2d3f2g.
Reference none
FE       (16s4p4d3f4g) -> [6s4p2d3f2g]

	26.000000 4
* S-type functions
    16 6
        13280.746866
        4555.931941
        1645.243644
        624.601709
        248.866093
        103.853491
        45.278613
        20.564393
        9.696774
        4.728977
        2.375100
        1.222744
        0.641992
        0.341923
        0.183693
        0.098974
 .249415899D+01 0.0 0.0 0.0 0.0 0.0
 .539132690D+01 0.0 0.0 0.0 0.0 0.0
 .155768087D+02 0.0 0.0 0.0 0.0 0.0
 .248296595D+02 0.0 0.0 0.0 0.0 0.0
 .125990020D+02 0.0 0.0 0.0 0.0 0.0
 -.527093265D+01 0.0 0.0 0.0 0.0 0.0
 .138443326D+02 0.0 0.0 0.0 0.0 0.0
 .154918296D+02 0.0 0.0 0.0 0.0 0.0
 -.552028999D+01 0.0 0.0 0.0 0.0 0.0
 .229526551D+01 0.0 0.0 0.0 0.0 0.0
 0.0 .411618242D+01 0.0 0.0 0.0 0.0
 0.0 .123245923D+01 0.0 0.0 0.0 0.0
 0.0 0.0 .129227934D+00 0.0 0.0 0.0
 0.0 0.0 0.0 .948355890D-01 0.0 0.0
 0.0 0.0 0.0 0.0 .760949668D-01 0.0
 0.0 0.0 0.0 0.0 0.0 .454696429D-01
* P-type functions
    4 4
        3.0805549490
        1.1542846781
        0.4678520906
        0.1949383711
 1.0 0.0 0.0 0.0
 0.0 1.0 0.0 0.0
 0.0 0.0 1.0 0.0
 0.0 0.0 0.0 1.0
* D-type functions
    4 2
        10.082702
        4.063616
        1.672439
        0.693210
 .511317787D-01 0.0
 .838744473D-01 0.0
 .604215894D-01 0.0
 0.0 .151584936D-01
* F-type functions
    3 3
        0.7304878634
        1.8262196585
        4.7481711121
 1.0 0.0 0.0
 0.0 1.0 0.0
 0.0 0.0 1.0
* G-type functions
    4 2
        18.283549
        6.210359
        2.263520
        0.845580
 .835378414D-01 0.0
 .142506502D+00 0.0
 .795756592D-01 0.0
 0.0 .188014423D-01

/Ga.SVP..16s4p4d1f.6s4p2d1f.
Reference none
GA       (16s4p4d1f) -> [6s4p2d1f]

	31.000000 3
* S-type functions
    16 6
        17947.039492
        7922.165364
        3518.777456
        1571.997196
        706.050460
        318.678342
        144.480134
        65.766659
        30.043212
        13.766661
        6.324837
        2.912083
        1.343031
        0.620138
        0.286552
        0.132441
 .357430337D+01 0.0 0.0 0.0 0.0 0.0
 .339372888D+01 0.0 0.0 0.0 0.0 0.0
 .119114220D+02 0.0 0.0 0.0 0.0 0.0
 .220500465D+02 0.0 0.0 0.0 0.0 0.0
 .272397547D+02 0.0 0.0 0.0 0.0 0.0
 .113882586D+02 0.0 0.0 0.0 0.0 0.0
 -.760413132D+01 0.0 0.0 0.0 0.0 0.0
 .209801721D+02 0.0 0.0 0.0 0.0 0.0
 .188609233D+02 0.0 0.0 0.0 0.0 0.0
 -.846428828D+01 0.0 0.0 0.0 0.0 0.0
 0.0 .723092797D+01 0.0 0.0 0.0 0.0
 0.0 .620958655D+01 0.0 0.0 0.0 0.0
 0.0 0.0 .738754657D+00 0.0 0.0 0.0
 0.0 0.0 0.0 .166078400D+00 0.0 0.0
 0.0 0.0 0.0 0.0 .259084354D+00 0.0
 0.0 0.0 0.0 0.0 0.0 .296324913D-01
* P-type functions
    4 4
        1.900224
        0.720994
        0.293803
        0.122751
 .114963071D-01 0.0 0.0 0.0
 0.0 -.112122682D-01 0.0 0.0
 0.0 0.0 -.188196452D-01 0.0
 0.0 0.0 0.0 -.128185356D-01
* D-type functions
    4 2
        4.451944
        1.564073
        0.598386
        0.235929
 .262801001D-01 0.0
 -.328620863D-01 0.0
 .331426285D-01 0.0
 0.0 .180242248D-01
* F-type functions
    1 1
        0.378585
 .102352451D-01

/Ge.SVP..16s4p5d1f1g.6s4p2d1f1g.
Reference none
GE       (16s4p5d1f1g) -> [6s4p2d1f1g]

	32.000000 4
* S-type functions
    16 6
        19411.275634
        8687.038800
        3898.100510
        1753.535194
        790.627810
        357.224478
        161.709934
        73.328517
        33.301495
        15.143375
        6.893868
        3.141213
        1.432316
        0.653430
        0.298189
        0.136091
 .370937134D+01 0.0 0.0 0.0 0.0 0.0
 .329548181D+01 0.0 0.0 0.0 0.0 0.0
 .119600561D+02 0.0 0.0 0.0 0.0 0.0
 .223669845D+02 0.0 0.0 0.0 0.0 0.0
 .286681519D+02 0.0 0.0 0.0 0.0 0.0
 .137076609D+02 0.0 0.0 0.0 0.0 0.0
 -.831008593D+01 0.0 0.0 0.0 0.0 0.0
 .208135305D+02 0.0 0.0 0.0 0.0 0.0
 .214793389D+02 0.0 0.0 0.0 0.0 0.0
 -.937342140D+01 0.0 0.0 0.0 0.0 0.0
 0.0 .820864926D+01 0.0 0.0 0.0 0.0
 0.0 .699384644D+01 0.0 0.0 0.0 0.0
 0.0 0.0 .507633042D+00 0.0 0.0 0.0
 0.0 0.0 0.0 .189206481D+00 0.0 0.0
 0.0 0.0 0.0 0.0 .288024909D+00 0.0
 0.0 0.0 0.0 0.0 0.0 .807944492D-01
* P-type functions
    4 4
        2.980620864
        1.116839352
        0.452674834
        0.188614514
 1.0 0.0 0.0 0.0
 0.0 1.0 0.0 0.0
 0.0 0.0 1.0 0.0
 0.0 0.0 0.0 1.0
* D-type functions
    5 2
        9.394730
        3.210499
        1.186945
        0.461488
        0.182571
 -.232602557D-01 0.0
 .783385724D-02 0.0
 .823280396D-02 0.0
 -.473764031D-01 0.0
 0.0 -.185591881D-01
* F-type functions
    1 1
        0.4493150
 1.00
* G-type functions
    1 1
        0.492
 1.00

/H.SVP..4s2p.2s2p.
Reference none
H       (4s2p) -> [2s2p]

	1.000000 1
* S-type functions
    4 2
        9.308130
        2.306718
        0.752012
        0.273978
 .344661830D-01 0.0
 .122533796D+00 0.0
 .182500211D+00 0.0
 0.0 .221505479D-01
* P-type functions
    2 2
        2.032704
        0.790252
 .295136591D-01 0.0
 0.0 .327558728D-01

/He.SVP..4s2p.2s2p.
Reference none
HE       (4s2p) -> [2s2p]

	2.000000 1
* S-type functions
    4 2
        37.393930
        6.986690
        1.923445
        0.628757
 .109967055D+00 0.0
 .375204773D+00 0.0
 .418477461D+00 0.0
 0.0 .108098760D+00
* P-type functions
    2 2
        3.6002168588
        1.50009035
 -.355474326D-01 0.0
 0.0 -.305239419D-01

/K.SVP..16s4p4d1f.6s2p2d1f.
Reference none
K       (16s4p4d1f) -> [6s2p2d1f]

	19.000000 3
* S-type functions
    16 6
        10737.353763
        4120.322314
        1624.889427
        657.647445
        272.773493
        115.760058
        50.178320
        22.175547
        9.972005
        4.553463
        2.106734
        0.985382
        0.464849
        0.220643
        0.105119
        0.050143
 .913636447D+00 0.0 0.0 0.0 0.0 0.0
 .153688032D+01 0.0 0.0 0.0 0.0 0.0
 .496541961D+01 0.0 0.0 0.0 0.0 0.0
 .104076084D+02 0.0 0.0 0.0 0.0 0.0
 .142019224D+02 0.0 0.0 0.0 0.0 0.0
 .551466241D+01 0.0 0.0 0.0 0.0 0.0
 -.245663541D+01 0.0 0.0 0.0 0.0 0.0
 .663059665D+01 0.0 0.0 0.0 0.0 0.0
 .890456311D+01 0.0 0.0 0.0 0.0 0.0
 -.148384471D+01 0.0 0.0 0.0 0.0 0.0
 0.0 .128456862D+00 0.0 0.0 0.0 0.0
 0.0 .170664621D+01 0.0 0.0 0.0 0.0
 0.0 0.0 .335973183D+00 0.0 0.0 0.0
 0.0 0.0 0.0 .178096756D-03 0.0 0.0
 0.0 0.0 0.0 0.0 .575920564D-02 0.0
 0.0 0.0 0.0 0.0 0.0 .274545681D-01
* P-type functions
    4 2
        0.901939
        0.317777
        0.134927
        0.061495
 -.902223776D-02 0.0
 .108208979D-01 0.0
 -.372555485D-03 0.0
 0.0 -.157367419D-01
* D-type functions
    4 2
        2.888532
        0.865328
        0.264540
        0.081429
 .428118152D-03 0.0
 .127318227D-03 0.0
 -.138220627D-02 0.0
 0.0 .334877135D-02
* F-type functions
    1 1
        0.248972
 -.114957103D-03

/Kr.SVP..17s4p5d1f1g.7s4p2d1f1g.
Reference none
KR       (17s4p5d1f1g) -> [7s4p2d1f1g]

	36.000000 4
* S-type functions
    17 7
        28150.848361
        12247.091231
        5379.155372
        2383.884427
        1065.343019
        479.803374
        217.638984
        99.365046
        45.632323
        21.065262
        9.768443
        4.547291
        2.123491
        0.994070
        0.466174
        0.218847
        0.102774
 .380324890D+01 0.0 0.0 0.0 0.0 0.0 0.0
 .369596396D+01 0.0 0.0 0.0 0.0 0.0 0.0
 .136247002D+02 0.0 0.0 0.0 0.0 0.0 0.0
 .256419144D+02 0.0 0.0 0.0 0.0 0.0 0.0
 .352484091D+02 0.0 0.0 0.0 0.0 0.0 0.0
 .180240420D+02 0.0 0.0 0.0 0.0 0.0 0.0
 -.984020936D+01 0.0 0.0 0.0 0.0 0.0 0.0
 .231400585D+02 0.0 0.0 0.0 0.0 0.0 0.0
 .293792225D+02 0.0 0.0 0.0 0.0 0.0 0.0
 -.139890820D+02 0.0 0.0 0.0 0.0 0.0 0.0
 0.0 .119995444D+02 0.0 0.0 0.0 0.0 0.0
 0.0 .110351514D+02 0.0 0.0 0.0 0.0 0.0
 0.0 0.0 -.150376854D+01 0.0 0.0 0.0 0.0
 0.0 0.0 0.0 .107556113D+01 0.0 0.0 0.0
 0.0 0.0 0.0 0.0 .798349987D+00 0.0 0.0
 0.0 0.0 0.0 0.0 0.0 .150684453D+00 0.0
 0.0 0.0 0.0 0.0 0.0 0.0 -.633131364D-02
* P-type functions
    4 4
        6.1182976
        2.2925276
        0.9292021
        0.3871675
 -.983149204D-02 0.0 0.0 0.0
 0.0 .211941581D-01 0.0 0.0
 0.0 0.0 -.291704616D-01 0.0
 0.0 0.0 0.0 .185850429D-01
* D-type functions
    5 2
        64.089169
        16.574963
        4.7787123
        1.4796492
        0.46972993
 .115364793D-02 0.0
 -.222968826D-02 0.0
 -.613137956D-04 0.0
 .821286545D-03 0.0
 0.0 -.798074563D-02
* F-type functions
    1 1
        0.80900000
 .292521829D-02
* G-type functions
    1 1
        0.886
 .273935919D-02

/Li.SVP..8s2p2d1f.6s2p2d1f.
Reference none
LI       (8s2p2d1f) -> [6s2p2d1f]

	3.000000 3
* S-type functions
    8 6
        149.123127
        39.446008
        11.643267
        3.796676
        1.347824
        0.510838
        0.201801
        0.080859
 .981021420D-01 0.0 0.0 0.0 0.0 0.0
 .314136042D+00 0.0 0.0 0.0 0.0 0.0
 .794821701D+00 0.0 0.0 0.0 0.0 0.0
 0.0 .715648733D+00 0.0 0.0 0.0 0.0
 0.0 0.0 .120724002D+00 0.0 0.0 0.0
 0.0 0.0 0.0 -.166072898D-01 0.0 0.0
 0.0 0.0 0.0 0.0 .130083601D-01 0.0
 0.0 0.0 0.0 0.0 0.0 .351183244D-01
* P-type functions
    2 2
        0.377864
        0.159554
 .619412766D-02 0.0
 0.0 -.167145197D-01
* D-type functions
    2 2
        0.560493
        0.237378
 .846955306D-04 0.0
 0.0 .130504343D-02
* F-type functions
    1 1
        0.468426
 -.173418893D-02

/Mg.SVP..12s4p4d1f.5s2p2d1f.
Reference none
MG       (12s4p4d1f) -> [5s2p2d1f]

	12.000000 3
* S-type functions
    12 5
        2322.925222
        780.205260
        275.406610
        101.862204
        39.333382
        15.790763
        6.559510
        2.804520
        1.226983
        0.545883
        0.245351
        0.110653
 .930467494D+00 0.0 0.0 0.0 0.0
 .202907033D+01 0.0 0.0 0.0 0.0
 .562509844D+01 0.0 0.0 0.0 0.0
 .752497942D+01 0.0 0.0 0.0 0.0
 .235689967D+01 0.0 0.0 0.0 0.0
 -.815477491D+00 0.0 0.0 0.0 0.0
 .256544360D+01 0.0 0.0 0.0 0.0
 .254940372D+01 0.0 0.0 0.0 0.0
 0.0 .360624290D+00 0.0 0.0 0.0
 0.0 0.0 -.425565196D-01 0.0 0.0
 0.0 0.0 0.0 .763640034D-01 0.0
 0.0 0.0 0.0 0.0 .725136832D-01
* P-type functions
    4 2
        20.153381
        3.961152
        0.978622
        0.264422
 .302971571D-02 0.0
 .217898931D-01 0.0
 -.256018698D-01 0.0
 0.0 .326063979D-01
* D-type functions
    4 2
        49.367933
        7.305662
        1.348457
        0.271252
 -.476021169D-03 0.0
 .144096547D-02 0.0
 -.576280491D-02 0.0
 0.0 .141821527D-01
* F-type functions
    1 1
        0.246037
 .384939567D-02

/Mn.SVP..16s4p4d3f4g.6s4p2d3f2g.
Reference none
MN       (16s4p4d3f4g) -> [6s4p2d3f2g]

	25.000000 4
* S-type functions
    16 6
        12991.430000
        4434.442782
        1593.831184
        602.409079
        239.033198
        99.367910
        43.169587
        19.542687
        9.187503
        4.468372
        2.238593
        1.149809
        0.602402
        0.320186
        0.171679
        0.092322
 .218695219D+01 0.0 0.0 0.0 0.0 0.0
 .484120886D+01 0.0 0.0 0.0 0.0 0.0
 .141058372D+02 0.0 0.0 0.0 0.0 0.0
 .233247601D+02 0.0 0.0 0.0 0.0 0.0
 .129038948D+02 0.0 0.0 0.0 0.0 0.0
 -.481404845D+01 0.0 0.0 0.0 0.0 0.0
 .115963167D+02 0.0 0.0 0.0 0.0 0.0
 .155280789D+02 0.0 0.0 0.0 0.0 0.0
 -.456822157D+01 0.0 0.0 0.0 0.0 0.0
 .132779379D+01 0.0 0.0 0.0 0.0 0.0
 0.0 .390641865D+01 0.0 0.0 0.0 0.0
 0.0 .113362105D+01 0.0 0.0 0.0 0.0
 0.0 0.0 .133043780D+00 0.0 0.0 0.0
 0.0 0.0 0.0 .666709117D-01 0.0 0.0
 0.0 0.0 0.0 0.0 .774291470D-01 0.0
 0.0 0.0 0.0 0.0 0.0 .433024624D-01
* P-type functions
    4 4
        2.9030604868
        1.0877774605
        0.4408955336
        0.1837064723
 1.00000000 0.0 0.0 0.0
 0.0 1.00000000 0.0 0.0
 0.0 0.0 1.00000000 0.0
 0.0 0.0 0.0 1.00000000
* D-type functions
    4 2
        20.554591
        6.385832
        2.280189
        0.856837
 -.157867530D-01 0.0
 .699240043D-02 0.0
 .101475696D-01 0.0
 0.0 -.161029479D-01
* F-type functions
    3 3
        4.3866167714
        1.6871602967
        0.674864118
 1.00000 0.0 0.0
 0.0 1.00000 0.0
 0.0 0.0 1.00000
* G-type functions
    4 2
        21.386169
        7.237472
        2.567980
        0.926123
 .663616330D-01 0.0
 .143844098D+00 0.0
 .925229249D-01 0.0
 0.0 .235786601D-01

/N.SVP..8s3p3d1f.6s3p3d1f.
Reference none
N       (8s3p3d1f) -> [6s3p3d1f]

	7.000000 3
* S-type functions
    8 6
        680.542530
        196.756214
        61.270793
        20.364463
        7.142477
        2.608026
        0.976373
        0.368633
 .502578962D+00 0.0 0.0 0.0 0.0 0.0
 .132478988D+01 0.0 0.0 0.0 0.0 0.0
 .341406111D+01 0.0 0.0 0.0 0.0 0.0
 0.0 .265034102D+01 0.0 0.0 0.0 0.0
 0.0 0.0 -.301302617D-02 0.0 0.0 0.0
 0.0 0.0 0.0 .122871912D+00 0.0 0.0
 0.0 0.0 0.0 0.0 .818031572D+00 0.0
 0.0 0.0 0.0 0.0 0.0 .194294639D+00
* P-type functions
    3 3
        .47073919406936
        1.129774065766
        2.8300840347
 .674057471D-01 0.0 0.0
 0.0 -.225055506D-01 0.0
 0.0 0.0 .355455721D-01
* D-type functions
    3 3
        5.8329865
        1.7326865
        .5452425
 .416040403D-01 0.0 0.0
 0.0 .110596980D-01 0.0
 0.0 0.0 .484079619D-01
* F-type functions
    1 1
        1.82648
 1.0000000

/Na.SVP..12s4p4d1f.5s2p2d1f.
Reference none
NA       (12s4p4d1f) -> [5s2p2d1f]

	11.000000 3
* S-type functions
    12 5
        1822.596856
        614.833756
        216.823638
        79.701175
        30.433939
        12.025685
        4.896024
        2.044068
        0.870628
        0.376255
        0.164045
        0.071735
 .877088260D+00 0.0 0.0 0.0 0.0
 .187407783D+01 0.0 0.0 0.0 0.0
 .513494627D+01 0.0 0.0 0.0 0.0
 .650321066D+01 0.0 0.0 0.0 0.0
 .167978337D+01 0.0 0.0 0.0 0.0
 -.539199108D+00 0.0 0.0 0.0 0.0
 .221157329D+01 0.0 0.0 0.0 0.0
 .190323348D+01 0.0 0.0 0.0 0.0
 0.0 .282946000D+00 0.0 0.0 0.0
 0.0 0.0 .171987926D-02 0.0 0.0
 0.0 0.0 0.0 .721683999D-02 0.0
 0.0 0.0 0.0 0.0 .334911809D-01
* P-type functions
    4 2
        0.287042
        0.126363
        0.066867
        0.037939
 .645603006D-02 0.0
 -.973780614D-02 0.0
 -.144795587D-01 0.0
 0.0 .191820080D-02
* D-type functions
    4 2
        0.327481
        0.094458
        0.028478
        0.008717
 -.594723490D-03 0.0
 .414106635D-02 0.0
 -.458357566D-03 0.0
 0.0 .371713633D-04
* F-type functions
    1 1
        0.134953
 -.408900706D-03

/Ne.SVP..8s3p3d1f.6s3p3d1f.
Reference none
NE       (8s3p3d1f) -> [6s3p3d1f]

	10.000000 3
* S-type functions
    8 6
        1273.305718
        414.747950
        138.155858
        46.890369
        16.152052
        5.623716
        1.970762
        0.692129
 .896242049D+00 0.0 0.0 0.0 0.0 0.0
 .213453736D+01 0.0 0.0 0.0 0.0 0.0
 .543243958D+01 0.0 0.0 0.0 0.0 0.0
 0.0 .512447677D+01 0.0 0.0 0.0 0.0
 0.0 0.0 -.133437119D+00 0.0 0.0 0.0
 0.0 0.0 0.0 .898305053D+00 0.0 0.0
 0.0 0.0 0.0 0.0 .209523338D+01 0.0
 0.0 0.0 0.0 0.0 0.0 .441961150D+00
* P-type functions
    3 3
        5.9230406
        2.3644872
        0.9852030
 .333974768D-02 0.0 0.0
 0.0 -.991503543D-02 0.0
 0.0 0.0 .744345831D-02
* D-type functions
    3 3
        11.643272
        3.4973642
        1.1102743
 -.136834589D-02 0.0 0.0
 0.0 .191057608D-02 0.0
 0.0 0.0 -.316266626D-02
* F-type functions
    1 1
        3.775999999
 .544131867D-03

/Ni.SVP..17s4p4d3f4g.7s4p2d3f2g.
Reference none
NI       (17s4p4d3f4g) -> [7s4p2d3f2g]

	28.000000 4
* S-type functions
    17 7
        16946.514342
        6055.909226
        2273.445757
        895.602448
        369.712093
        159.655135
        71.974004
        33.789715
        16.473453
        8.313425
        4.327166
        2.313786
        1.265471
        0.704639
        0.397493
        0.226004
        0.128840
 .253863983D+01 0.0 0.0 0.0 0.0 0.0 0.0
 .478297454D+01 0.0 0.0 0.0 0.0 0.0 0.0
 .146731908D+02 0.0 0.0 0.0 0.0 0.0 0.0
 .251089197D+02 0.0 0.0 0.0 0.0 0.0 0.0
 .201545209D+02 0.0 0.0 0.0 0.0 0.0 0.0
 -.361460213D+01 0.0 0.0 0.0 0.0 0.0 0.0
 .503670181D+01 0.0 0.0 0.0 0.0 0.0 0.0
 .223492006D+02 0.0 0.0 0.0 0.0 0.0 0.0
 .221702008D+01 0.0 0.0 0.0 0.0 0.0 0.0
 -.487240374D+01 0.0 0.0 0.0 0.0 0.0 0.0
 0.0 .637840791D+01 0.0 0.0 0.0 0.0 0.0
 0.0 .270517445D+01 0.0 0.0 0.0 0.0 0.0
 0.0 0.0 .163803373D+01 0.0 0.0 0.0 0.0
 0.0 0.0 0.0 -.256086364D+00 0.0 0.0 0.0
 0.0 0.0 0.0 0.0 .337113542D+00 0.0 0.0
 0.0 0.0 0.0 0.0 0.0 -.322289445D-01 0.0
 0.0 0.0 0.0 0.0 0.0 0.0 .929094518D-01
* P-type functions
    4 4
        3.3746935995
        1.2644985010
        0.5125237115
        0.2135515464
 1.0 0.0 0.0 0.0
 0.0 1.0 0.0 0.0
 0.0 0.0 1.0 0.0
 0.0 0.0 0.0 1.0
* D-type functions
    4 2
        11.631090
        4.347172
        1.650239
        0.629740
 -.761094188D-01 0.0
 -.110523689D+00 0.0
 -.600777321D-01 0.0
 0.0 -.709715090D-02
* F-type functions
    3 3
        0.8747184358
        2.1867960896
        5.6856698329
 1.0 0.0 0.0
 0.0 1.0 0.0
 0.0 0.0 1.0
* G-type functions
    4 2
        22.517337
        7.620909
        2.709583
        0.979884
 .145588053D+00 0.0
 .243244287D+00 0.0
 .123135082D+00 0.0
 0.0 .212353073D-01

/O.SVP..8s3p3d1f.6s3p3d1f.
Reference none
O       (8s3p3d1f) -> [6s3p3d1f]

	8.000000 3
* S-type functions
    8 6
        896.103570
        269.725232
        85.615077
        28.445035
        9.806981
        3.474722
        1.251921
        0.453613
 .597607497D+00 0.0 0.0 0.0 0.0 0.0
 .153580779D+01 0.0 0.0 0.0 0.0 0.0
 .404702313D+01 0.0 0.0 0.0 0.0 0.0
 0.0 .349842083D+01 0.0 0.0 0.0 0.0
 0.0 0.0 -.243874987D-01 0.0 0.0 0.0
 0.0 0.0 0.0 .321477178D+00 0.0 0.0
 0.0 0.0 0.0 0.0 .116259870D+01 0.0
 0.0 0.0 0.0 0.0 0.0 .252683069D+00
* P-type functions
    3 3
        .61470886294797
        1.4753012710751445
        3.69562968404323697
 -.855784393D-01 0.0 0.0
 0.0 .417999594D-01 0.0
 0.0 0.0 -.585510786D-01
* D-type functions
    3 3
        7.652672
        2.217868
        0.682337
 .882984627D-01 0.0 0.0
 0.0 .119262449D+00 0.0
 0.0 0.0 .448738917D-01
* F-type functions
    1 1
        2.1917808219178
 1.00

/P.SVP..12s6p5d1f1g.5s3p2d1f1g.
Reference none
P       (12s6p5d1f1g) -> [5s3p2d1f1g]

	15.000000 4
* S-type functions
    12 5
        3080.374628
        913.434256
        294.679145
        103.182377
        39.073261
        15.920552
        6.932594
        3.198606
        1.547486
        0.775586
        0.397285
        0.205011
 .169071816D+01 0.0 0.0 0.0 0.0
 .440910922D+01 0.0 0.0 0.0 0.0
 .109460690D+02 0.0 0.0 0.0 0.0
 .871606171D+01 0.0 0.0 0.0 0.0
 -.941456442D+00 0.0 0.0 0.0 0.0
 .193918410D+01 0.0 0.0 0.0 0.0
 .561881863D+01 0.0 0.0 0.0 0.0
 .150104535D+01 0.0 0.0 0.0 0.0
 0.0 -.596480525D+00 0.0 0.0 0.0
 0.0 0.0 .321960638D+00 0.0 0.0
 0.0 0.0 0.0 .357202568D+00 0.0
 0.0 0.0 0.0 0.0 .160557230D+00
* P-type functions
    6 3
        33.055549408
        11.210699896
        4.1389714806
        1.6313513718
        0.670156080
        .27923170
 -.312247916D-01 0.0 0.0
 .909231017D-01 0.0 0.0
 -.820319557D-01 0.0 0.0
 .756090396D-01 0.0 0.0
 0.0 -.391238946D-01 0.0
 0.0 0.0 .454391345D-01
* D-type functions
    5 2
        22.774700
        6.8437355000
        2.2634725000
        .79671950000
        .28657650000
 .144183801D-01 0.0
 -.912741672D-03 0.0
 -.383920812D-02 0.0
 .140665339D-01 0.0
 0.0 .149139325D-01
* F-type functions
    1 1
        .82191780821
 1.0000000
* G-type functions
    1 1
        0.9000000000
 1.0000000

/S.SVP..12s6p5d1f1g.5s3p2d1f1g.
Reference none
S       (12s6p5d1f1g) -> [5s3p2d1f1g]

	16.000000 4
* S-type functions
    12 5
        3612.937686
        1059.651419
        339.294845
        118.353236
        44.819730
        18.333761
        8.045309
        3.754008
        1.842377
        0.938931
        0.489798
        0.257531
 .181284859D+01 0.0 0.0 0.0 0.0
 .484805075D+01 0.0 0.0 0.0 0.0
 .121166565D+02 0.0 0.0 0.0 0.0
 .970399474D+01 0.0 0.0 0.0 0.0
 -.116396453D+01 0.0 0.0 0.0 0.0
 .239681432D+01 0.0 0.0 0.0 0.0
 .653823916D+01 0.0 0.0 0.0 0.0
 .155418734D+01 0.0 0.0 0.0 0.0
 0.0 -.951752048D+00 0.0 0.0 0.0
 0.0 0.0 .625328058D+00 0.0 0.0
 0.0 0.0 0.0 .404590133D+00 0.0
 0.0 0.0 0.0 0.0 .247751770D+00
* P-type functions
    6 3
        41.74187096811436
        14.1566422856977
        5.22660843881246
        2.0600371098923
        0.846259376129472
        .35260807338728
 -.332732125D-01 0.0 0.0
 .888692750D-01 0.0 0.0
 -.752373737D-01 0.0 0.0
 .715881805D-01 0.0 0.0
 0.0 -.382501827D-01 0.0
 0.0 0.0 .259971744D-01
* D-type functions
    5 2
        28.715626
        8.626600
        2.850550
        1.002011
        0.359873
 .431050659D-01 0.0
 .370010125D-02 0.0
 -.260349194D-01 0.0
 .722640442D-01 0.0
 0.0 .375215882D-01
* F-type functions
    1 1
        1.00456621
 1.000000000
* G-type functions
    1 1
        1.10000000000
 1.00000000

/Sc.SVP..16s4p4d3f4g.6s4p3d3f2g.
Reference none
SC       (16s4p4d3f4g) -> [6s4p3d3f2g]

	21.000000 4
* S-type functions
    16 6
        12111.031809
        4731.603523
        1899.741959
        782.812855
        330.568401
        142.827754
        63.032568
        28.360804
        12.984412
        6.036391
        2.843422
        1.354043
        0.650334
        0.314276
        0.152440
        0.074032
 .118999550D+01 0.0 0.0 0.0 0.0 0.0
 .184853680D+01 0.0 0.0 0.0 0.0 0.0
 .600531030D+01 0.0 0.0 0.0 0.0 0.0
 .121609681D+02 0.0 0.0 0.0 0.0 0.0
 .162673857D+02 0.0 0.0 0.0 0.0 0.0
 .626954165D+01 0.0 0.0 0.0 0.0 0.0
 -.304184975D+01 0.0 0.0 0.0 0.0 0.0
 .800576151D+01 0.0 0.0 0.0 0.0 0.0
 .111624120D+02 0.0 0.0 0.0 0.0 0.0
 -.235325253D+01 0.0 0.0 0.0 0.0 0.0
 0.0 .325752330D+00 0.0 0.0 0.0 0.0
 0.0 .249181136D+01 0.0 0.0 0.0 0.0
 0.0 0.0 .358792845D+00 0.0 0.0 0.0
 0.0 0.0 0.0 .848408928D-01 0.0 0.0
 0.0 0.0 0.0 0.0 .680555793D-01 0.0
 0.0 0.0 0.0 0.0 0.0 .248700844D-01
* P-type functions
    4 4
        2.0579298
        .77110677
        .31254328
        .13022637
 1.0 0.0 0.0 0.0
 0.0 1.0 0.0 0.0
 0.0 0.0 1.0 0.0
 0.0 0.0 0.0 1.0
* D-type functions
    4 3
        7.266619
        2.260966
        0.792202
        0.289753
 .228085111D-01 0.0 0.0
 .717081430D-01 0.0 0.0
 0.0 .643176936D-01 0.0
 0.0 0.0 .332115102D-01
* F-type functions
    3 3
        2.1074579
        .81056073
        .32422429
 1.0 0.0 0.0
 0.0 1.0 0.0
 0.0 0.0 1.0
* G-type functions
    4 2
        8.072890
        2.809364
        0.995311
        0.354757
 .645042557D-01 0.0
 .109991827D+00 0.0
 .825812085D-01 0.0
 0.0 .337225618D-01

/Se.SVP..16s4p5d1f1g.6s4p2d1f1g.
Reference none
SE       (16s4p5d1f1g) -> [6s4p2d1f1g]

	34.000000 4
* S-type functions
    16 6
        28424.079408
        11965.443031
        5109.127758
        2210.865219
        968.680873
        429.330471
        192.295776
        86.951123
        39.651109
        18.215688
        8.421136
        3.913329
        1.825915
        0.854427
        0.400523
        0.187860
 .290097726D+01 0.0 0.0 0.0 0.0 0.0
 .355041308D+01 0.0 0.0 0.0 0.0 0.0
 .116734971D+02 0.0 0.0 0.0 0.0 0.0
 .237222947D+02 0.0 0.0 0.0 0.0 0.0
 .327407785D+02 0.0 0.0 0.0 0.0 0.0
 .172858406D+02 0.0 0.0 0.0 0.0 0.0
 -.907279130D+01 0.0 0.0 0.0 0.0 0.0
 .212940426D+02 0.0 0.0 0.0 0.0 0.0
 .259200243D+02 0.0 0.0 0.0 0.0 0.0
 -.114028431D+02 0.0 0.0 0.0 0.0 0.0
 0.0 .935370129D+01 0.0 0.0 0.0 0.0
 0.0 .927835933D+01 0.0 0.0 0.0 0.0
 0.0 0.0 -.119538164D+00 0.0 0.0 0.0
 0.0 0.0 0.0 .365557539D+00 0.0 0.0
 0.0 0.0 0.0 0.0 .579195182D+00 0.0
 0.0 0.0 0.0 0.0 0.0 .133247676D+00
* P-type functions
    4 4
        4.45082970557280699
        1.66772695802338378
        0.675959370145664651
        0.281649737560693614
 1.0 0.0 0.0 0.0
 0.0 1.0 0.0 0.0
 0.0 0.0 1.0 0.0
 0.0 0.0 0.0 1.0
* D-type functions
    5 2
        19.421546
        6.308195
        2.206202
        0.808840
        0.301388
 .112296725D-01 0.0
 .261954084D-01 0.0
 -.389402520D-01 0.0
 .635708166D-01 0.0
 0.0 .342123054D-01
* F-type functions
    1 1
        0.617351598
 1.0
* G-type functions
    1 1
        0.676000000000
 1.0

/Si.SVP..12s6p5d1f1g.5s3p2d1f1g.
Reference none
SI       (12s6p5d1f1g) -> [5s3p2d1f1g]

	14.000000 4
* S-type functions
    12 5
        2611.044276
        778.106954
        251.334549
        87.771603
        33.016055
        13.308963
        5.711106
        2.587334
        1.225272
        0.599657
        0.299487
        0.150601
 .156488355D+01 0.0 0.0 0.0 0.0
 .401170927D+01 0.0 0.0 0.0 0.0
 .991872011D+01 0.0 0.0 0.0 0.0
 .769589454D+01 0.0 0.0 0.0 0.0
 -.835052158D+00 0.0 0.0 0.0 0.0
 .174225093D+01 0.0 0.0 0.0 0.0
 .475683271D+01 0.0 0.0 0.0 0.0
 .124764169D+01 0.0 0.0 0.0 0.0
 0.0 -.325623881D+00 0.0 0.0 0.0
 0.0 0.0 .179143159D+00 0.0 0.0
 0.0 0.0 0.0 .246192137D+00 0.0
 0.0 0.0 0.0 0.0 .945013211D-01
* P-type functions
    6 3
        24.3711952298
        8.26542473880
        3.05158086348
        1.20276272772
        0.49409266983
        .205871945766
 -.217774840D-01 0.0 0.0
 .892323208D-01 0.0 0.0
 -.838732069D-01 0.0 0.0
 .807108195D-01 0.0 0.0
 0.0 1.00 0.0
 0.0 0.0 1.00
* D-type functions
    5 2
        16.833774
        5.060871
        1.676395
        0.591428
        0.213280
 -.275863682D-01 0.0
 .939371388D-03 0.0
 .146972176D-01 0.0
 -.477365785D-01 0.0
 0.0 -.255468896D-01
* F-type functions
    1 1
        .63926940639
 1.00
* G-type functions
    1 1
        0.70000000000
 1.00

/Ti.SVP..16s4p4d3f4g.6s4p2d3f2g.
Reference none
TI       (16s4p4d3f4g) -> [6s4p2d3f2g]

	22.000000 4
* S-type functions
    16 6
        11741.261831
        3896.112376
        1366.684552
        506.174013
        197.620679
        81.167943
        34.983992
        15.775347
        7.416055
        3.619707
        1.825857
        0.946922
        0.502082
        0.270541
        0.147213
        0.080369
 .146681383D+01 0.0 0.0 0.0 0.0 0.0
 .362744316D+01 0.0 0.0 0.0 0.0 0.0
 .106661239D+02 0.0 0.0 0.0 0.0 0.0
 .191894563D+02 0.0 0.0 0.0 0.0 0.0
 .121032927D+02 0.0 0.0 0.0 0.0 0.0
 -.334206544D+01 0.0 0.0 0.0 0.0 0.0
 .694372569D+01 0.0 0.0 0.0 0.0 0.0
 .135563980D+02 0.0 0.0 0.0 0.0 0.0
 -.183867930D+01 0.0 0.0 0.0 0.0 0.0
 -.651764111D+00 0.0 0.0 0.0 0.0 0.0
 0.0 .299750579D+01 0.0 0.0 0.0 0.0
 0.0 .867041750D+00 0.0 0.0 0.0 0.0
 0.0 0.0 .116611733D+00 0.0 0.0 0.0
 0.0 0.0 0.0 .672510019D-02 0.0 0.0
 0.0 0.0 0.0 0.0 .844077835D-01 0.0
 0.0 0.0 0.0 0.0 0.0 .426977261D-01
* P-type functions
    4 4
        2.315989617
        0.867801865
        0.351735516
        0.146556465
 1.0 0.0 0.0 0.0
 0.0 1.0 0.0 0.0
 0.0 0.0 1.0 0.0
 0.0 0.0 0.0 1.0
* D-type functions
    4 2
        6.236666
        2.369213
        0.915461
        0.355766
 .586561657D-01 0.0
 .134910832D+00 0.0
 .843926781D-01 0.0
 0.0 .148068448D-01
* F-type functions
    3 3
        2.741536012
        1.054436927
        0.4217747710
 1.0 0.0 0.0
 0.0 1.0 0.0
 0.0 0.0 1.0
* G-type functions
    4 2
        10.575443
        3.630363
        1.365304
        0.530352
 .813473916D-01 0.0
 .143312382D+00 0.0
 .874094865D-01 0.0
 0.0 .188662249D-01

/V.SVP..16s4p4d3f4g.6s4p2d3f2g.
Reference none
V       (16s4p4d3f4g) -> [6s4p2d3f2g]

	23.000000 4
* S-type functions
    16 6
        12144.548430
        4090.547218
        1453.532228
        544.199699
        214.323019
        88.606436
        38.358694
        17.337038
        8.152567
        3.972831
        1.997355
        1.030907
        0.543337
        0.290755
        0.157036
        0.085078
 .168958579D+01 0.0 0.0 0.0 0.0 0.0
 .396788447D+01 0.0 0.0 0.0 0.0 0.0
 .116364308D+02 0.0 0.0 0.0 0.0 0.0
 .204194258D+02 0.0 0.0 0.0 0.0 0.0
 .126802178D+02 0.0 0.0 0.0 0.0 0.0
 -.374378480D+01 0.0 0.0 0.0 0.0 0.0
 .789174859D+01 0.0 0.0 0.0 0.0 0.0
 .146298860D+02 0.0 0.0 0.0 0.0 0.0
 -.248613669D+01 0.0 0.0 0.0 0.0 0.0
 -.332189075D+00 0.0 0.0 0.0 0.0 0.0
 0.0 .337727442D+01 0.0 0.0 0.0 0.0
 0.0 .966689644D+00 0.0 0.0 0.0 0.0
 0.0 0.0 .146108806D+00 0.0 0.0 0.0
 0.0 0.0 0.0 .221852540D-01 0.0 0.0
 0.0 0.0 0.0 0.0 .853578726D-01 0.0
 0.0 0.0 0.0 0.0 0.0 .430857750D-01
* P-type functions
    4 4
        2.53219894827554759
        0.948815553160801683
        0.384571803323930650
        0.160238251384971109
 1.0 0.0 0.0 0.0
 0.0 1.0 0.0 0.0
 0.0 0.0 1.0 0.0
 0.0 0.0 0.0 1.0
* D-type functions
    4 2
        6.9077990
        2.58671150
        1.0122750
        .4023690
 .688418566D-01 0.0
 .137781870D+00 0.0
 .740615731D-01 0.0
 0.0 .115969465D-01
* F-type functions
    3 3
        3.28352761646000024
        1.26289523709999996
        0.50515809483999996
 1.0 0.0 0.0
 0.0 1.0 0.0
 0.0 0.0 1.0
* G-type functions
    4 2
        12.313283
        4.300262
        1.649020
        0.653708
 -.957574056D-01 0.0
 -.164750866D+00 0.0
 -.985139949D-01 0.0
 0.0 -.220365151D-01

/Zn.SVP..17s4p4d3f4g.7s4p2d3f2g.
Reference none
ZN       (17s4p4d3f4g) -> [7s4p2d3f2g]

	30.000000 4
* S-type functions
    17 7
        18187.965643
        6792.962410
        2648.304444
        1076.402267
        455.448198
        200.266746
        91.330088
        43.098400
        20.990965
        10.521655
        5.410657
        2.844773
        1.523660
        0.828110
        0.454872
        0.251463
        0.139313
 .309780061D+01 0.0 0.0 0.0 0.0 0.0 0.0
 .497729695D+01 0.0 0.0 0.0 0.0 0.0 0.0
 .158076964D+02 0.0 0.0 0.0 0.0 0.0 0.0
 .263790367D+02 0.0 0.0 0.0 0.0 0.0 0.0
 .236090845D+02 0.0 0.0 0.0 0.0 0.0 0.0
 -.246728130D+01 0.0 0.0 0.0 0.0 0.0 0.0
 .263929637D+01 0.0 0.0 0.0 0.0 0.0 0.0
 .251044859D+02 0.0 0.0 0.0 0.0 0.0 0.0
 .546836242D+01 0.0 0.0 0.0 0.0 0.0 0.0
 -.664532010D+01 0.0 0.0 0.0 0.0 0.0 0.0
 0.0 .746863023D+01 0.0 0.0 0.0 0.0 0.0
 0.0 .388621636D+01 0.0 0.0 0.0 0.0 0.0
 0.0 0.0 .204483011D+01 0.0 0.0 0.0 0.0
 0.0 0.0 0.0 -.150648118D+00 0.0 0.0 0.0
 0.0 0.0 0.0 0.0 .343233798D+00 0.0 0.0
 0.0 0.0 0.0 0.0 0.0 -.186706151D-01 0.0
 0.0 0.0 0.0 0.0 0.0 0.0 .929628981D-01
* P-type functions
    4 4
        3.74062852728
        1.40161440620
        0.568099224305
        0.236708010127
 -.303658091D-01 0.0 0.0 0.0
 0.0 .253038263D-01 0.0 0.0
 0.0 0.0 -.904182201D-02 0.0
 0.0 0.0 0.0 -.114114885D-01
* D-type functions
    4 2
        13.677864
        5.044626
        1.879399
        .702440
 -.785324426D-02 0.0
 .292652371D-01 0.0
 -.228385900D-01 0.0
 0.0 .709309443D-02
* F-type functions
    3 3
        6.75682587645
        2.59877918325
        1.03951167330
 .254188225D-02 0.0 0.0
 0.0 .534003087D-03 0.0
 0.0 0.0 -.139946714D-02
* G-type functions
    4 2
        23.916047
        8.076353
        2.850813
        1.021666
 -.292834212D-02 0.0
 -.739890694D-02 0.0
 .106216748D-02 0.0
 0.0 -.193935009D-02

