************************************************************************
* This file is part of OpenMolcas.                                     *
*                                                                      *
* OpenMolcas is free software; you can redistribute it and/or modify   *
* it under the terms of the GNU Lesser General Public License, v. 2.1. *
* OpenMolcas is distributed in the hope that it will be useful, but it *
* is provided "as is" and without any express or implied warranties.   *
* For more details see the full text of the license in the file        *
* LICENSE or in <http://www.gnu.org/licenses/>.                        *
************************************************************************
/B.TZVP..9s3p3d1f.7s3p3d1f.
Reference none
B       (9s3p3d1f) -> [7s3p3d1f]

	5.000000 3
* S-type functions
    9 7
        392.034458
        117.497240
        38.124596
        13.300122
        4.943892
        1.936417
        0.788705
        0.329117
        0.138468
 .245931009D+00 0.0 0.0 0.0 0.0 0.0 0.0
 .643032421D+00 0.0 0.0 0.0 0.0 0.0 0.0
 .168735933D+01 0.0 0.0 0.0 0.0 0.0 0.0
 0.0 .180216774D+01 0.0 0.0 0.0 0.0 0.0
 0.0 0.0 .384960252D+00 0.0 0.0 0.0 0.0
 0.0 0.0 0.0 -.156858914D+00 0.0 0.0 0.0
 0.0 0.0 0.0 0.0 .215152058D+00 0.0 0.0
 0.0 0.0 0.0 0.0 0.0 .203050802D+00 0.0
 0.0 0.0 0.0 0.0 0.0 0.0 .284151037D-01
* P-type functions
    3 3
        1.222976
        0.494853
        0.208793
 -.176750209D-01 0.0 0.0
 0.0 -.772345834D-02 0.0
 0.0 0.0 -.431752162D-01
* D-type functions
    3 3
        2.401898
        0.764497
        0.257494
 .343467560D-01 0.0 0.0
 0.0 .561736269D-01 0.0
 0.0 0.0 .216339552D-01
* F-type functions
    1 1
        0.913067
 .279246526D-01

/Be.TZVP..9s2p2d1f.7s2p2d1f.
Reference none
BE       (9s2p2d1f) -> [7s2p2d1f]

	4.000000 3
* S-type functions
    9 7
        268.616242
        76.015198
        23.916298
        8.310854
        3.157956
        1.294040
        0.561718
        0.252830
        0.115217
 .155834234D+00 0.0 0.0 0.0 0.0 0.0 0.0
 .462997918D+00 0.0 0.0 0.0 0.0 0.0 0.0
 .116784141D+01 0.0 0.0 0.0 0.0 0.0 0.0
 0.0 .124405915D+01 0.0 0.0 0.0 0.0 0.0
 0.0 0.0 .298696650D+00 0.0 0.0 0.0 0.0
 0.0 0.0 0.0 -.809631376D-01 0.0 0.0 0.0
 0.0 0.0 0.0 0.0 .357979882D-01 0.0 0.0
 0.0 0.0 0.0 0.0 0.0 .125027779D+00 0.0
 0.0 0.0 0.0 0.0 0.0 0.0 .316721942D-01
* P-type functions
    2 2
        3.734251
        1.113026
 -.335559307D-01 0.0
 0.0 .107784009D-01
* D-type functions
    2 2
        0.918714
        0.355682
 -.415890587D-02 0.0
 0.0 -.308927771D-01
* F-type functions
    1 1
        0.395370
 1.000000

/C.TZVP..9s3p3d1f.7s3p3d1f.
Reference none
C       (9s3p3d1f) -> [7s3p3d1f]

	6.000000 3
* S-type functions
    9 7
        591.553927
        172.117940
        54.799259
        18.959094
        7.059930
        2.794849
        1.158634
        0.494324
        0.212969
 .315820195D+00 0.0 0.0 0.0 0.0 0.0 0.0
 .875038628D+00 0.0 0.0 0.0 0.0 0.0 0.0
 .230760524D+01 0.0 0.0 0.0 0.0 0.0 0.0
 0.0 .241797215D+01 0.0 0.0 0.0 0.0 0.0
 0.0 0.0 .413457616D+00 0.0 0.0 0.0 0.0
 0.0 0.0 0.0 -.190009544D+00 0.0 0.0 0.0
 0.0 0.0 0.0 0.0 .377071048D+00 0.0 0.0
 0.0 0.0 0.0 0.0 0.0 .347917878D+00 0.0
 0.0 0.0 0.0 0.0 0.0 0.0 .547407724D-01
* P-type functions
    3 3
        .327847357953757
        .7868336590892
        1.9710183160
 .531909851D-01 0.0 0.0
 0.0 .134419688D-02 0.0
 0.0 0.0 .221986005D-01
* D-type functions
    3 3
        4.013301
        1.247505
        0.408148
 .524684127D-01 0.0 0.0
 0.0 .802678252D-01 0.0
 0.0 0.0 .296361673D-01
* F-type functions
    1 1
        0.9
 1.0

/F.TZVP..9s3p4d1f.7s3p4d1f.
Reference none
F       (9s3p4d1f) -> [7s3p4d1f]

	9.000000 3
* S-type functions
    9 7
        1156.702314
        345.040302
        111.332058
        38.590234
        14.241466
        5.534132
        2.235096
        0.924514
        0.385516
 .714311861D+00 0.0 0.0 0.0 0.0 0.0 0.0
 .184554195D+01 0.0 0.0 0.0 0.0 0.0 0.0
 .471095270D+01 0.0 0.0 0.0 0.0 0.0 0.0
 0.0 .421329515D+01 0.0 0.0 0.0 0.0 0.0
 0.0 0.0 .117722220D+00 0.0 0.0 0.0 0.0
 0.0 0.0 0.0 .158947018D+00 0.0 0.0 0.0
 0.0 0.0 0.0 0.0 .149637682D+01 0.0 0.0
 0.0 0.0 0.0 0.0 0.0 .680567498D+00 0.0
 0.0 0.0 0.0 0.0 0.0 0.0 .112978975D+00
* P-type functions
    3 3
        3.12693419327049993
        1.26740199143583809
        0.528084163098265891
 1.00 0.0 0.0
 0.0 1.00 0.0
 0.0 0.0 1.00
* D-type functions
    4 4
        23.185570
        6.682483
        2.167677
        0.733849
 -.410642118D-01 0.0 0.0 0.0
 0.0 -.133270131D+00 0.0 0.0
 0.0 0.0 -.123502519D+00 0.0
 0.0 0.0 0.0 -.319503914D-01
* F-type functions
    1 1
        2.557077625
 1.00

/Li.TZVP..9s2p2d1f.7s2p2d1f.
Reference none
LI       (9s2p2d1f) -> [7s2p2d1f]

	3.000000 3
* S-type functions
    9 7
        173.289709
        47.834436
        14.753627
        5.052147
        1.901550
        0.775515
        0.336355
        0.151659
        0.069296
 .801487465D-01 0.0 0.0 0.0 0.0 0.0 0.0
 .252205653D+00 0.0 0.0 0.0 0.0 0.0 0.0
 .665209033D+00 0.0 0.0 0.0 0.0 0.0 0.0
 0.0 .776580777D+00 0.0 0.0 0.0 0.0 0.0
 0.0 0.0 .271847552D+00 0.0 0.0 0.0 0.0
 0.0 0.0 0.0 -.136213804D-01 0.0 0.0 0.0
 0.0 0.0 0.0 0.0 -.915809395D-02 0.0 0.0
 0.0 0.0 0.0 0.0 0.0 .358237890D-01 0.0
 0.0 0.0 0.0 0.0 0.0 0.0 .193645418D-01
* P-type functions
    2 2
        0.377864
        0.159554
 .619412766D-02 0.0
 0.0 -.167145197D-01
* D-type functions
    2 2
        0.560493
        0.237378
 .846955306D-04 0.0
 0.0 .130504343D-02
* F-type functions
    1 1
        0.468426
 -.173418893D-02

/N.TZVP..9s3p3d1f.7s3p3d1f.
Reference none
N       (9s3p3d1f) -> [7s3p3d1f]

	7.000000 3
* S-type functions
    9 7
        791.076935
        229.450184
        72.886960
        25.181596
        9.371697
        3.710655
        1.539463
        0.657553
        0.283654
 .415675056D+00 0.0 0.0 0.0 0.0 0.0 0.0
 .114750694D+01 0.0 0.0 0.0 0.0 0.0 0.0
 .301935767D+01 0.0 0.0 0.0 0.0 0.0 0.0
 0.0 .303233041D+01 0.0 0.0 0.0 0.0 0.0
 0.0 0.0 .387849486D+00 0.0 0.0 0.0 0.0
 0.0 0.0 0.0 -.182929310D+00 0.0 0.0 0.0
 0.0 0.0 0.0 0.0 .652389391D+00 0.0 0.0
 0.0 0.0 0.0 0.0 0.0 .499910671D+00 0.0
 0.0 0.0 0.0 0.0 0.0 0.0 .738687880D-01
* P-type functions
    3 3
        .47073919406936
        1.129774065766
        2.8300840347
 .674057471D-01 0.0 0.0
 0.0 -.225055506D-01 0.0
 0.0 0.0 .355455721D-01
* D-type functions
    3 3
        5.8329865
        1.7326865
        .5452425
 .416040403D-01 0.0 0.0
 0.0 .110596980D-01 0.0
 0.0 0.0 .484079619D-01
* F-type functions
    1 1
        1.82648
 1.0000000

/O.TZVP..9s3p3d1f.7s3p3d1f.
Reference none
O       (9s3p3d1f) -> [7s3p3d1f]

	8.000000 3
* S-type functions
    9 7
        957.843253
        281.967425
        90.199832
        31.138299
        11.493732
        4.484049
        1.823504
        0.760903
        0.320292
 .562496240D+00 0.0 0.0 0.0 0.0 0.0 0.0
 .149108985D+01 0.0 0.0 0.0 0.0 0.0 0.0
 .386547733D+01 0.0 0.0 0.0 0.0 0.0 0.0
 0.0 .360577725D+01 0.0 0.0 0.0 0.0 0.0
 0.0 0.0 .230058581D+00 0.0 0.0 0.0 0.0
 0.0 0.0 0.0 -.501576910D-01 0.0 0.0 0.0
 0.0 0.0 0.0 0.0 .105070463D+01 0.0 0.0
 0.0 0.0 0.0 0.0 0.0 .585654881D+00 0.0
 0.0 0.0 0.0 0.0 0.0 0.0 .749912950D-01
* P-type functions
    3 3
        .61470886294797
        1.4753012710751445
        3.69562968404323697
 -.855784393D-01 0.0 0.0
 0.0 .417999594D-01 0.0
 0.0 0.0 -.585510786D-01
* D-type functions
    3 3
        7.652672
        2.217868
        0.682337
 .910687268D-01 0.0 0.0
 0.0 .111631339D+00 0.0
 0.0 0.0 .460066568D-01
* F-type functions
    1 1
        2.1917808219178
 1.00

