!***********************************************************************
! This file is part of OpenMolcas                                      *
!***********************************************************************

This is fruit 3.3.9
