************************************************************************
* This file is part of OpenMolcas.                                     *
*                                                                      *
* OpenMolcas is free software; you can redistribute it and/or modify   *
* it under the terms of the GNU Lesser General Public License, v. 2.1. *
* OpenMolcas is distributed in the hope that it will be useful, but it *
* is provided "as is" and without any express or implied warranties.   *
* For more details see the full text of the license in the file        *
* LICENSE or in <http://www.gnu.org/licenses/>.                        *
************************************************************************

#Hamiltonian NRH
#Nucleus UNK
#Contraction SEG
#AllElectron AE_

************************************************************************
* This file has been generated from TURBOMOLE basis set data:          *
*   https://cosmologic-services.de/basis-sets/basissets.php            *
************************************************************************

/H.def-TZVP.Hattig.4s3p2d.4s2p1d.
C. Hattig. Phys. Chem. Chem. Phys. 7 (2005) 59-66. doi:10.1039/b415208e
HYDROGEN (4s,3p,2d) -> [4s,2p,1d]
     1.0   2
* s-type functions
    4    4
        9.3352160900
        1.8611070400
        0.5951246600
        0.2644809900
   0.64609379   0.00000000   0.00000000   0.00000000
   0.00000000   1.37005241   0.00000000   0.00000000
   0.00000000   0.00000000   1.00000000   0.00000000
   0.00000000   0.00000000   0.00000000   1.00000000
* p-type functions
    3    2
        2.4524982100
        1.3540383000
        0.5952239400
   0.13284956   0.00000000
   1.45276215   0.00000000
   0.00000000   1.00000000
* d-type functions
    2    1
        1.5816376600
        0.6274396000
   1.49367397
  -0.01070690

/He.def-TZVP.Hattig.4s3p.4s3p.
C. Hattig. Phys. Chem. Chem. Phys. 7 (2005) 59-66. doi:10.1039/b415208e
HELIUM (4s,3p) -> [4s,3p]
     2.0   1
* s-type functions
    4    4
       24.7188971700
        5.3595242200
        1.5602373400
        0.5534366800
   0.26232950   0.00000000   0.00000000   0.00000000
   0.00000000   0.74373221   0.00000000   0.00000000
   0.00000000   0.00000000   1.00000000   0.00000000
   0.00000000   0.00000000   0.00000000   1.00000000
* p-type functions
    3    3
        6.9485327500
        3.4788708500
        1.2399848500
  -0.26439504   0.00000000   0.00000000
   0.00000000   1.62594634   0.00000000
   0.00000000   0.00000000   1.00000000

/Li.def-TZVP.Hattig.9s5p3d.8s4p1d.
C. Hattig. Phys. Chem. Chem. Phys. 7 (2005) 59-66. doi:10.1039/b415208e
LITHIUM (9s,5p,3d) -> [8s,4p,1d]
     3.0   2
* s-type functions
    9    8
       85.4510430800
       17.8756744100
        4.4719337600
        2.7154488900
        1.1817354400
        0.4283762900
        0.1683854300
        0.1050657800
        0.0433263300
   0.25324236   0.00000000   0.00000000   0.00000000   0.00000000   0.00000000   0.00000000   0.00000000
   1.43298030   0.00000000   0.00000000   0.00000000   0.00000000   0.00000000   0.00000000   0.00000000
   0.00000000   0.90772073   0.00000000   0.00000000   0.00000000   0.00000000   0.00000000   0.00000000
   0.00000000   0.00000000   0.23753913   0.00000000   0.00000000   0.00000000   0.00000000   0.00000000
   0.00000000   0.00000000   0.00000000  -0.44771122   0.00000000   0.00000000   0.00000000   0.00000000
   0.00000000   0.00000000   0.00000000   0.00000000   1.00000000   0.00000000   0.00000000   0.00000000
   0.00000000   0.00000000   0.00000000   0.00000000   0.00000000   1.00000000   0.00000000   0.00000000
   0.00000000   0.00000000   0.00000000   0.00000000   0.00000000   0.00000000   1.00000000   0.00000000
   0.00000000   0.00000000   0.00000000   0.00000000   0.00000000   0.00000000   0.00000000   1.00000000
* p-type functions
    5    4
        7.1346242900
        2.6507292800
        0.6876622400
        0.3368016100
        0.1585257900
   0.21273138   0.00000000   0.00000000   0.00000000
   0.38815992   0.00000000   0.00000000   0.00000000
   0.00000000   1.43472717   0.00000000   0.00000000
   0.00000000   0.00000000   1.00000000   0.00000000
   0.00000000   0.00000000   0.00000000   1.00000000
* d-type functions
    3    1
        3.6695597600
        0.6329563500
        0.1476317500
  -0.76839821
   1.77449682
   1.23018018

/Be.def-TZVP.Hattig.9s5p3d.8s4p2d.
C. Hattig. Phys. Chem. Chem. Phys. 7 (2005) 59-66. doi:10.1039/b415208e
BERYLLIUM (9s,5p,3d) -> [8s,4p,2d]
     4.0   2
* s-type functions
    9    8
       86.8110121200
       17.9817497500
        7.7695889400
        2.7717745500
        1.1484636900
        0.3933020300
        0.2313541400
        0.0968246000
        0.0565879700
   1.18820240   0.00000000   0.00000000   0.00000000   0.00000000   0.00000000   0.00000000   0.00000000
   1.71284790   0.00000000   0.00000000   0.00000000   0.00000000   0.00000000   0.00000000   0.00000000
   0.00000000   1.07129590   0.00000000   0.00000000   0.00000000   0.00000000   0.00000000   0.00000000
   0.00000000   0.00000000  -0.21982450   0.00000000   0.00000000   0.00000000   0.00000000   0.00000000
   0.00000000   0.00000000   0.00000000  -0.58936217   0.00000000   0.00000000   0.00000000   0.00000000
   0.00000000   0.00000000   0.00000000   0.00000000   1.00000000   0.00000000   0.00000000   0.00000000
   0.00000000   0.00000000   0.00000000   0.00000000   0.00000000   1.00000000   0.00000000   0.00000000
   0.00000000   0.00000000   0.00000000   0.00000000   0.00000000   0.00000000   1.00000000   0.00000000
   0.00000000   0.00000000   0.00000000   0.00000000   0.00000000   0.00000000   0.00000000   1.00000000
* p-type functions
    5    4
        8.7763961200
        2.9124419400
        0.6452480800
        0.2382938400
        0.1401728500
   2.28316930   0.00000000   0.00000000   0.00000000
   2.27145280   0.00000000   0.00000000   0.00000000
   0.00000000   1.00000000   0.00000000   0.00000000
   0.00000000   0.00000000   1.00000000   0.00000000
   0.00000000   0.00000000   0.00000000   1.00000000
* d-type functions
    3    2
        3.4672384500
        0.5830489300
        0.1738425700
   0.63489064   0.00000000
   1.95150326   0.00000000
   0.00000000   1.00000000

/B.def-TZVP.HattigHattig.8s6p5d3f.7s6p4d1f.
C. Hattig. Phys. Chem. Chem. Phys. 7 (2005) 59-66. doi:10.1039/b415208e
BORON (8s,6p,5d,3f) -> [7s,6p,4d,1f]
     5.0   3
* s-type functions
    8    7
      146.4109837200
       31.8465245100
       12.9831467200
        5.4809802800
        1.9674978100
        0.6866894600
        0.2467461100
        0.1493432000
   0.75852308   0.00000000   0.00000000   0.00000000   0.00000000   0.00000000   0.00000000
   1.61698852   0.00000000   0.00000000   0.00000000   0.00000000   0.00000000   0.00000000
   0.00000000   0.52609360   0.00000000   0.00000000   0.00000000   0.00000000   0.00000000
   0.00000000   0.00000000   1.00000000   0.00000000   0.00000000   0.00000000   0.00000000
   0.00000000   0.00000000   0.00000000   1.00000000   0.00000000   0.00000000   0.00000000
   0.00000000   0.00000000   0.00000000   0.00000000   1.00000000   0.00000000   0.00000000
   0.00000000   0.00000000   0.00000000   0.00000000   0.00000000   1.00000000   0.00000000
   0.00000000   0.00000000   0.00000000   0.00000000   0.00000000   0.00000000   1.00000000
* p-type functions
    6    6
       16.1422149100
        4.1904521400
        1.7815851800
        0.7135150900
        0.3223784900
        0.1532432000
   1.11913551   0.00000000   0.00000000   0.00000000   0.00000000   0.00000000
   0.00000000   1.15216884   0.00000000   0.00000000   0.00000000   0.00000000
   0.00000000   0.00000000   1.00000000   0.00000000   0.00000000   0.00000000
   0.00000000   0.00000000   0.00000000   1.00000000   0.00000000   0.00000000
   0.00000000   0.00000000   0.00000000   0.00000000   1.00000000   0.00000000
   0.00000000   0.00000000   0.00000000   0.00000000   0.00000000   1.00000000
* d-type functions
    5    4
        6.5213049100
        2.3159114800
        0.8636391100
        0.3749858300
        0.1420983600
   0.20543871   0.00000000   0.00000000   0.00000000
   1.42659072   0.00000000   0.00000000   0.00000000
   0.00000000   1.00000000   0.00000000   0.00000000
   0.00000000   0.00000000   1.00000000   0.00000000
   0.00000000   0.00000000   0.00000000   1.00000000
* f-type functions
    3    1
        2.2186618300
        0.7428881600
        0.3977273200
   0.81087004
   1.75975495
   0.33568155

/C.def-TZVP.Hattig.8s6p5d3f.7s6p4d1f.
C. Hattig. Phys. Chem. Chem. Phys. 7 (2005) 59-66. doi:10.1039/b415208e
CARBON (8s,6p,5d,3f) -> [7s,6p,4d,1f]
     6.0   3
* s-type functions
    8    7
      281.4769331600
       59.8626069100
       23.2828449200
        9.4336543900
        3.3115794700
        1.0743857900
        0.4059170000
        0.2068278200
   0.48911748   0.00000000   0.00000000   0.00000000   0.00000000   0.00000000   0.00000000
   1.52506644   0.00000000   0.00000000   0.00000000   0.00000000   0.00000000   0.00000000
   0.00000000   0.53278071   0.00000000   0.00000000   0.00000000   0.00000000   0.00000000
   0.00000000   0.00000000   1.00000000   0.00000000   0.00000000   0.00000000   0.00000000
   0.00000000   0.00000000   0.00000000   1.00000000   0.00000000   0.00000000   0.00000000
   0.00000000   0.00000000   0.00000000   0.00000000   1.00000000   0.00000000   0.00000000
   0.00000000   0.00000000   0.00000000   0.00000000   0.00000000   1.00000000   0.00000000
   0.00000000   0.00000000   0.00000000   0.00000000   0.00000000   0.00000000   1.00000000
* p-type functions
    6    6
       24.7943227600
        6.3790867800
        2.7361982700
        1.1318078500
        0.4917128000
        0.2376059100
   1.27505829   0.00000000   0.00000000   0.00000000   0.00000000   0.00000000
   0.00000000   1.30659648   0.00000000   0.00000000   0.00000000   0.00000000
   0.00000000   0.00000000   1.00000000   0.00000000   0.00000000   0.00000000
   0.00000000   0.00000000   0.00000000   1.00000000   0.00000000   0.00000000
   0.00000000   0.00000000   0.00000000   0.00000000   1.00000000   0.00000000
   0.00000000   0.00000000   0.00000000   0.00000000   0.00000000   1.00000000
* d-type functions
    5    4
        9.0676879600
        3.4116768900
        1.4150161500
        0.5879348600
        0.2575308700
   0.47011119   0.00000000   0.00000000   0.00000000
   1.34112442   0.00000000   0.00000000   0.00000000
   0.00000000   1.00000000   0.00000000   0.00000000
   0.00000000   0.00000000   1.00000000   0.00000000
   0.00000000   0.00000000   0.00000000   1.00000000
* f-type functions
    3    1
        2.3870173500
        1.1606799200
        0.5528981700
   0.79093613
   1.39179984
   0.10532469

/N.def-TZVP.Hattig.8s6p5d3f.7s6p4d1f.
C. Hattig. Phys. Chem. Chem. Phys. 7 (2005) 59-66. doi:10.1039/b415208e
NITROGEN (8s,6p,5d,3f) -> [7s,6p,4d,1f]
     7.0   3
* s-type functions
    8    7
      291.1839425700
       62.0305323800
       21.9811322900
        9.0671153400
        3.6065484800
        1.3728447400
        0.6370908500
        0.2690723100
   0.56533084   0.00000000   0.00000000   0.00000000   0.00000000   0.00000000   0.00000000
   1.37490932   0.00000000   0.00000000   0.00000000   0.00000000   0.00000000   0.00000000
   0.00000000   0.28294012   0.00000000   0.00000000   0.00000000   0.00000000   0.00000000
   0.00000000   0.00000000   1.00000000   0.00000000   0.00000000   0.00000000   0.00000000
   0.00000000   0.00000000   0.00000000   1.00000000   0.00000000   0.00000000   0.00000000
   0.00000000   0.00000000   0.00000000   0.00000000   1.00000000   0.00000000   0.00000000
   0.00000000   0.00000000   0.00000000   0.00000000   0.00000000   1.00000000   0.00000000
   0.00000000   0.00000000   0.00000000   0.00000000   0.00000000   0.00000000   1.00000000
* p-type functions
    6    6
       34.1216919700
        8.6692708500
        3.9695844400
        1.6756902700
        0.6976940100
        0.3358254400
   1.03739350   0.00000000   0.00000000   0.00000000   0.00000000   0.00000000
   0.00000000   0.98879118   0.00000000   0.00000000   0.00000000   0.00000000
   0.00000000   0.00000000   1.00000000   0.00000000   0.00000000   0.00000000
   0.00000000   0.00000000   0.00000000   1.00000000   0.00000000   0.00000000
   0.00000000   0.00000000   0.00000000   0.00000000   1.00000000   0.00000000
   0.00000000   0.00000000   0.00000000   0.00000000   0.00000000   1.00000000
* d-type functions
    5    4
       12.7271734000
        5.0291661100
        2.0912502500
        0.8590204300
        0.3506847900
   0.53636257   0.00000000   0.00000000   0.00000000
   1.31247449   0.00000000   0.00000000   0.00000000
   0.00000000   1.00000000   0.00000000   0.00000000
   0.00000000   0.00000000   1.00000000   0.00000000
   0.00000000   0.00000000   0.00000000   1.00000000
* f-type functions
    3    1
        3.4686536900
        1.6686504200
        0.8094760000
   0.90354051
   1.65562725
   0.24984638

/O.def-TZVP.Hattig.8s6p5d3f.7s6p4d1f.
C. Hattig. Phys. Chem. Chem. Phys. 7 (2005) 59-66. doi:10.1039/b415208e
OXYGEN (8s,6p,5d,3f) -> [7s,6p,4d,1f]
     8.0   3
* s-type functions
    8    7
      364.9129100000
       77.3870940000
       24.3017060000
        8.4369545000
        3.1527941000
        1.5775430000
        0.7817824400
        0.3165267900
   0.58060367   0.00000000   0.00000000   0.00000000   0.00000000   0.00000000   0.00000000
   1.40179849   0.00000000   0.00000000   0.00000000   0.00000000   0.00000000   0.00000000
   0.00000000   0.34994578   0.00000000   0.00000000   0.00000000   0.00000000   0.00000000
   0.00000000   0.00000000   1.00000000   0.00000000   0.00000000   0.00000000   0.00000000
   0.00000000   0.00000000   0.00000000   1.00000000   0.00000000   0.00000000   0.00000000
   0.00000000   0.00000000   0.00000000   0.00000000   1.00000000   0.00000000   0.00000000
   0.00000000   0.00000000   0.00000000   0.00000000   0.00000000   1.00000000   0.00000000
   0.00000000   0.00000000   0.00000000   0.00000000   0.00000000   0.00000000   1.00000000
* p-type functions
    6    6
       56.7359480000
       14.9972170000
        5.6428116000
        2.4069219800
        1.0264059600
        0.4376997700
   1.06024410   0.00000000   0.00000000   0.00000000   0.00000000   0.00000000
   0.00000000   1.20038258   0.00000000   0.00000000   0.00000000   0.00000000
   0.00000000   0.00000000   1.00000000   0.00000000   0.00000000   0.00000000
   0.00000000   0.00000000   0.00000000   1.00000000   0.00000000   0.00000000
   0.00000000   0.00000000   0.00000000   0.00000000   1.00000000   0.00000000
   0.00000000   0.00000000   0.00000000   0.00000000   0.00000000   1.00000000
* d-type functions
    5    4
       12.4468210000
        6.1216917000
        2.7102949000
        1.1524061000
        0.4138617400
   1.13716995   0.00000000   0.00000000   0.00000000
   0.77017590   0.00000000   0.00000000   0.00000000
   0.00000000   1.00000000   0.00000000   0.00000000
   0.00000000   0.00000000   1.00000000   0.00000000
   0.00000000   0.00000000   0.00000000   1.00000000
* f-type functions
    3    1
        4.7793539000
        2.3204642000
        1.0912804000
   0.25251741
   1.78671278
   0.32923623

/F.def-TZVP.Hattig.8s6p5d3f.7s6p4d1f.
C. Hattig. Phys. Chem. Chem. Phys. 7 (2005) 59-66. doi:10.1039/b415208e
FLUORINE (8s,6p,5d,3f) -> [7s,6p,4d,1f]
     9.0   3
* s-type functions
    8    7
      423.0946129500
       94.2565662100
       32.8370074300
       11.8280436800
        4.5766907000
        2.0336432800
        0.9812903300
        0.3964481300
   0.76390649   0.00000000   0.00000000   0.00000000   0.00000000   0.00000000   0.00000000
   1.36572654   0.00000000   0.00000000   0.00000000   0.00000000   0.00000000   0.00000000
   0.00000000   0.46102666   0.00000000   0.00000000   0.00000000   0.00000000   0.00000000
   0.00000000   0.00000000   1.00000000   0.00000000   0.00000000   0.00000000   0.00000000
   0.00000000   0.00000000   0.00000000   1.00000000   0.00000000   0.00000000   0.00000000
   0.00000000   0.00000000   0.00000000   0.00000000   1.00000000   0.00000000   0.00000000
   0.00000000   0.00000000   0.00000000   0.00000000   0.00000000   1.00000000   0.00000000
   0.00000000   0.00000000   0.00000000   0.00000000   0.00000000   0.00000000   1.00000000
* p-type functions
    6    6
       53.9449417700
       14.0187538600
        4.9008641200
        2.5331277800
        1.1765088800
        0.5263688700
   1.59714200   0.00000000   0.00000000   0.00000000   0.00000000   0.00000000
   0.00000000   1.12931208   0.00000000   0.00000000   0.00000000   0.00000000
   0.00000000   0.00000000   1.00000000   0.00000000   0.00000000   0.00000000
   0.00000000   0.00000000   0.00000000   1.00000000   0.00000000   0.00000000
   0.00000000   0.00000000   0.00000000   0.00000000   1.00000000   0.00000000
   0.00000000   0.00000000   0.00000000   0.00000000   0.00000000   1.00000000
* d-type functions
    5    4
       25.0469613200
        9.5841895400
        3.4894629300
        1.5810322800
        0.5096865800
   0.59910575   0.00000000   0.00000000   0.00000000
   1.00663766   0.00000000   0.00000000   0.00000000
   0.00000000   1.00000000   0.00000000   0.00000000
   0.00000000   0.00000000   1.00000000   0.00000000
   0.00000000   0.00000000   0.00000000   1.00000000
* f-type functions
    3    1
        6.5167674800
        3.0830033800
        1.4343959200
   0.17116274
   1.44883740
   0.43282911

/Ne.def-TZVP.Hattig.8s6p5d3f.7s6p4d1f.
C. Hattig. Phys. Chem. Chem. Phys. 7 (2005) 59-66. doi:10.1039/b415208e
NEON (8s,6p,5d,3f) -> [7s,6p,4d,1f]
    10.0   3
* s-type functions
    8    7
      626.2270000000
      141.0900000000
       29.4706000000
       11.3204000000
        4.6206500000
        1.8860100000
        1.0998600000
        0.5064960000
   1.00000000   0.00000000   0.00000000   0.00000000   0.00000000   0.00000000   0.00000000
   1.75948000   0.00000000   0.00000000   0.00000000   0.00000000   0.00000000   0.00000000
   0.00000000   1.00000000   0.00000000   0.00000000   0.00000000   0.00000000   0.00000000
   0.00000000   0.00000000   1.00000000   0.00000000   0.00000000   0.00000000   0.00000000
   0.00000000   0.00000000   0.00000000   1.00000000   0.00000000   0.00000000   0.00000000
   0.00000000   0.00000000   0.00000000   0.00000000   1.00000000   0.00000000   0.00000000
   0.00000000   0.00000000   0.00000000   0.00000000   0.00000000   1.00000000   0.00000000
   0.00000000   0.00000000   0.00000000   0.00000000   0.00000000   0.00000000   1.00000000
* p-type functions
    6    6
       89.1569000000
       25.1456000000
        8.5454100000
        3.8780100000
        1.6163800000
        0.6764120000
   1.00000000   0.00000000   0.00000000   0.00000000   0.00000000   0.00000000
   0.00000000   1.00000000   0.00000000   0.00000000   0.00000000   0.00000000
   0.00000000   0.00000000   1.00000000   0.00000000   0.00000000   0.00000000
   0.00000000   0.00000000   0.00000000   1.00000000   0.00000000   0.00000000
   0.00000000   0.00000000   0.00000000   0.00000000   1.00000000   0.00000000
   0.00000000   0.00000000   0.00000000   0.00000000   0.00000000   1.00000000
* d-type functions
    5    4
       25.0470000000
        9.5841900000
        4.5624100000
        2.1427300000
        0.6278530000
   0.70145800   0.00000000   0.00000000   0.00000000
   0.99166700   0.00000000   0.00000000   0.00000000
   0.00000000   1.00000000   0.00000000   0.00000000
   0.00000000   0.00000000   1.00000000   0.00000000
   0.00000000   0.00000000   0.00000000   1.00000000
* f-type functions
    3    1
        9.1709800000
        4.2095300000
        1.9035500000
   1.00000000
   3.18117000
   1.31756000

/Na.def-TZVP.Hattig.10s8p5d.9s6p4d.
C. Hattig. Phys. Chem. Chem. Phys. 7 (2005) 59-66. doi:10.1039/b415208e
SODIUM (10s,8p,5d) -> [9s,6p,4d]
    11.0   2
* s-type functions
   10    9
      217.1302400000
       80.1297160000
       30.5754420000
       11.5973890000
        4.4544257000
        1.7642554000
        0.8343559200
        0.3678803400
        0.1600688300
        0.0695912100
   0.57112470   0.00000000   0.00000000   0.00000000   0.00000000   0.00000000   0.00000000   0.00000000   0.00000000
   0.43608986   0.00000000   0.00000000   0.00000000   0.00000000   0.00000000   0.00000000   0.00000000   0.00000000
   0.00000000  -7.14313110   0.00000000   0.00000000   0.00000000   0.00000000   0.00000000   0.00000000   0.00000000
   0.00000000   0.00000000   0.63306458   0.00000000   0.00000000   0.00000000   0.00000000   0.00000000   0.00000000
   0.00000000   0.00000000   0.00000000   1.22750170   0.00000000   0.00000000   0.00000000   0.00000000   0.00000000
   0.00000000   0.00000000   0.00000000   0.00000000   1.00271106   0.00000000   0.00000000   0.00000000   0.00000000
   0.00000000   0.00000000   0.00000000   0.00000000   0.00000000  -0.37019479   0.00000000   0.00000000   0.00000000
   0.00000000   0.00000000   0.00000000   0.00000000   0.00000000   0.00000000   1.00000000   0.00000000   0.00000000
   0.00000000   0.00000000   0.00000000   0.00000000   0.00000000   0.00000000   0.00000000   1.00000000   0.00000000
   0.00000000   0.00000000   0.00000000   0.00000000   0.00000000   0.00000000   0.00000000   0.00000000   1.00000000
* p-type functions
    8    6
       51.7334474800
       16.8932310500
        5.3302502300
        2.3749777700
        0.8695016100
        0.4551004600
        0.1385019000
        0.0654618400
  -0.89146236   0.00000000   0.00000000   0.00000000   0.00000000   0.00000000
   0.11479756   0.00000000   0.00000000   0.00000000   0.00000000   0.00000000
   1.89299339   0.00000000   0.00000000   0.00000000   0.00000000   0.00000000
   0.00000000   0.63784622   0.00000000   0.00000000   0.00000000   0.00000000
   0.00000000   0.00000000   1.00000000   0.00000000   0.00000000   0.00000000
   0.00000000   0.00000000   0.00000000   1.00000000   0.00000000   0.00000000
   0.00000000   0.00000000   0.00000000   0.00000000   1.00000000   0.00000000
   0.00000000   0.00000000   0.00000000   0.00000000   0.00000000   1.00000000
* d-type functions
    5    4
       22.0137596100
        6.8929078100
        3.7105133800
        1.0731939600
        0.4793788100
   1.70262148   0.00000000   0.00000000   0.00000000
   1.69792091   0.00000000   0.00000000   0.00000000
   0.00000000   1.18092165   0.00000000   0.00000000
   0.00000000   0.00000000  -0.12141903   0.00000000
   0.00000000   0.00000000   0.00000000   1.00000000

/Mg.def-TZVP.Hattig.10s8p5d.9s6p4d.
C. Hattig. Phys. Chem. Chem. Phys. 7 (2005) 59-66. doi:10.1039/b415208e
MAGNESIUM (10s,8p,5d) -> [9s,6p,4d]
    12.0   2
* s-type functions
   10    9
      217.7794018300
       76.5205145800
       28.5197384400
       11.7104399900
        5.3600949000
        2.1276397200
        0.9078501000
        0.3746235100
        0.1696662600
        0.0825810600
   0.57112470   0.00000000   0.00000000   0.00000000   0.00000000   0.00000000   0.00000000   0.00000000   0.00000000
   0.43608986   0.00000000   0.00000000   0.00000000   0.00000000   0.00000000   0.00000000   0.00000000   0.00000000
   0.00000000  -7.14706530   0.00000000   0.00000000   0.00000000   0.00000000   0.00000000   0.00000000   0.00000000
   0.00000000   0.00000000   0.63306458   0.00000000   0.00000000   0.00000000   0.00000000   0.00000000   0.00000000
   0.00000000   0.00000000   0.00000000   1.66969264   0.00000000   0.00000000   0.00000000   0.00000000   0.00000000
   0.00000000   0.00000000   0.00000000   0.00000000   0.58612939   0.00000000   0.00000000   0.00000000   0.00000000
   0.00000000   0.00000000   0.00000000   0.00000000   0.00000000   1.00000000   0.00000000   0.00000000   0.00000000
   0.00000000   0.00000000   0.00000000   0.00000000   0.00000000   0.00000000   1.00000000   0.00000000   0.00000000
   0.00000000   0.00000000   0.00000000   0.00000000   0.00000000   0.00000000   0.00000000   1.00000000   0.00000000
   0.00000000   0.00000000   0.00000000   0.00000000   0.00000000   0.00000000   0.00000000   0.00000000   1.00000000
* p-type functions
    8    6
       50.4816430100
       13.4034456400
        5.5306694000
        3.2533349400
        1.1547727800
        0.6792781100
        0.2671553300
        0.1078411300
  -1.05900612   0.00000000   0.00000000   0.00000000   0.00000000   0.00000000
   0.68345614   0.00000000   0.00000000   0.00000000   0.00000000   0.00000000
   1.83304611   0.00000000   0.00000000   0.00000000   0.00000000   0.00000000
   0.00000000   0.17746258   0.00000000   0.00000000   0.00000000   0.00000000
   0.00000000   0.00000000   1.00000000   0.00000000   0.00000000   0.00000000
   0.00000000   0.00000000   0.00000000   1.00000000   0.00000000   0.00000000
   0.00000000   0.00000000   0.00000000   0.00000000   1.00000000   0.00000000
   0.00000000   0.00000000   0.00000000   0.00000000   0.00000000   1.00000000
* d-type functions
    5    4
       22.8574146600
        7.0554202700
        4.1502472200
        1.4502766300
        0.6219730600
   1.93743312   0.00000000   0.00000000   0.00000000
   1.85871548   0.00000000   0.00000000   0.00000000
   0.00000000   0.52435180   0.00000000   0.00000000
   0.00000000   0.00000000  -0.52718666   0.00000000
   0.00000000   0.00000000   0.00000000   1.00000000

/Al.def-TZVP.Hattig.10s7p7d3f.9s7p6d2f.
C. Hattig. Phys. Chem. Chem. Phys. 7 (2005) 59-66. doi:10.1039/b415208e
ALUMINIUM (10s,7p,7d,3f) -> [9s,7p,6d,2f]
    13.0   3
* s-type functions
   10    9
      300.7042000000
      104.8277100000
       40.6171360000
       16.2264530000
        6.8105249000
        3.1016033000
        1.2923103000
        0.6081401800
        0.2672698500
        0.1446638500
   1.18256078   0.00000000   0.00000000   0.00000000   0.00000000   0.00000000   0.00000000   0.00000000   0.00000000
   0.75032101   0.00000000   0.00000000   0.00000000   0.00000000   0.00000000   0.00000000   0.00000000   0.00000000
   0.00000000   0.78924033   0.00000000   0.00000000   0.00000000   0.00000000   0.00000000   0.00000000   0.00000000
   0.00000000   0.00000000   1.00000000   0.00000000   0.00000000   0.00000000   0.00000000   0.00000000   0.00000000
   0.00000000   0.00000000   0.00000000   1.00000000   0.00000000   0.00000000   0.00000000   0.00000000   0.00000000
   0.00000000   0.00000000   0.00000000   0.00000000   1.00000000   0.00000000   0.00000000   0.00000000   0.00000000
   0.00000000   0.00000000   0.00000000   0.00000000   0.00000000   1.00000000   0.00000000   0.00000000   0.00000000
   0.00000000   0.00000000   0.00000000   0.00000000   0.00000000   0.00000000   1.00000000   0.00000000   0.00000000
   0.00000000   0.00000000   0.00000000   0.00000000   0.00000000   0.00000000   0.00000000   1.00000000   0.00000000
   0.00000000   0.00000000   0.00000000   0.00000000   0.00000000   0.00000000   0.00000000   0.00000000   1.00000000
* p-type functions
    7    7
       77.9751080000
        9.5556363500
        5.6209625600
        2.1992677000
        0.8513466300
        0.3498443800
        0.1673435400
  -0.82198532   0.00000000   0.00000000   0.00000000   0.00000000   0.00000000   0.00000000
   0.00000000   0.83563139   0.00000000   0.00000000   0.00000000   0.00000000   0.00000000
   0.00000000   0.00000000   1.80463505   0.00000000   0.00000000   0.00000000   0.00000000
   0.00000000   0.00000000   0.00000000   1.00000000   0.00000000   0.00000000   0.00000000
   0.00000000   0.00000000   0.00000000   0.00000000   1.00000000   0.00000000   0.00000000
   0.00000000   0.00000000   0.00000000   0.00000000   0.00000000   1.00000000   0.00000000
   0.00000000   0.00000000   0.00000000   0.00000000   0.00000000   0.00000000   1.00000000
* d-type functions
    7    6
       35.7941330000
       12.0143290000
        4.4013968000
        2.1081375000
        0.9656198100
        0.4461274300
        0.1954932400
   0.86201923   0.00000000   0.00000000   0.00000000   0.00000000   0.00000000
   1.40646258   0.00000000   0.00000000   0.00000000   0.00000000   0.00000000
   0.00000000   0.59250754   0.00000000   0.00000000   0.00000000   0.00000000
   0.00000000   0.00000000   1.00000000   0.00000000   0.00000000   0.00000000
   0.00000000   0.00000000   0.00000000   1.00000000   0.00000000   0.00000000
   0.00000000   0.00000000   0.00000000   0.00000000   1.00000000   0.00000000
   0.00000000   0.00000000   0.00000000   0.00000000   0.00000000   1.00000000
* f-type functions
    3    2
        1.9378956800
        0.3792524900
        0.2498298100
   1.46346068   0.00000000
   0.00000000   0.25942180
   0.00000000  -0.08455754

/Si.def-TZVP.Hattig.10s7p7d3f.9s7p6d2f.
C. Hattig. Phys. Chem. Chem. Phys. 7 (2005) 59-66. doi:10.1039/b415208e
SILICON (10s,7p,7d,3f) -> [9s,7p,6d,2f]
    14.0   3
* s-type functions
   10    9
      252.9531600000
       93.6198010000
       34.9095570000
       11.1809530000
        6.5209819000
        3.3821943000
        1.3250942000
        0.5192593600
        0.2452325100
        0.1293553000
   1.51090391   0.00000000   0.00000000   0.00000000   0.00000000   0.00000000   0.00000000   0.00000000   0.00000000
  -0.11996911   0.00000000   0.00000000   0.00000000   0.00000000   0.00000000   0.00000000   0.00000000   0.00000000
   0.00000000  -0.50047579   0.00000000   0.00000000   0.00000000   0.00000000   0.00000000   0.00000000   0.00000000
   0.00000000   0.00000000   1.00000000   0.00000000   0.00000000   0.00000000   0.00000000   0.00000000   0.00000000
   0.00000000   0.00000000   0.00000000   1.00000000   0.00000000   0.00000000   0.00000000   0.00000000   0.00000000
   0.00000000   0.00000000   0.00000000   0.00000000   1.00000000   0.00000000   0.00000000   0.00000000   0.00000000
   0.00000000   0.00000000   0.00000000   0.00000000   0.00000000   1.00000000   0.00000000   0.00000000   0.00000000
   0.00000000   0.00000000   0.00000000   0.00000000   0.00000000   0.00000000   1.00000000   0.00000000   0.00000000
   0.00000000   0.00000000   0.00000000   0.00000000   0.00000000   0.00000000   0.00000000   1.00000000   0.00000000
   0.00000000   0.00000000   0.00000000   0.00000000   0.00000000   0.00000000   0.00000000   0.00000000   1.00000000
* p-type functions
    7    7
       81.9448870000
        9.8349535000
        4.8376359000
        1.7786477000
        0.6933997000
        0.4078821800
        0.1563260300
  -0.64542929   0.00000000   0.00000000   0.00000000   0.00000000   0.00000000   0.00000000
   0.00000000   1.54270173   0.00000000   0.00000000   0.00000000   0.00000000   0.00000000
   0.00000000   0.00000000   0.33931377   0.00000000   0.00000000   0.00000000   0.00000000
   0.00000000   0.00000000   0.00000000  -0.99311150   0.00000000   0.00000000   0.00000000
   0.00000000   0.00000000   0.00000000   0.00000000   1.00000000   0.00000000   0.00000000
   0.00000000   0.00000000   0.00000000   0.00000000   0.00000000   1.00000000   0.00000000
   0.00000000   0.00000000   0.00000000   0.00000000   0.00000000   0.00000000   1.51139817
* d-type functions
    7    6
       47.1663600000
       15.0000780000
        3.9646776000
        2.3321633000
        0.6527345100
        0.3684865200
        0.1591656000
   0.78720200   0.00000000   0.00000000   0.00000000   0.00000000   0.00000000
   1.80566812   0.00000000   0.00000000   0.00000000   0.00000000   0.00000000
   0.00000000   0.70726547   0.00000000   0.00000000   0.00000000   0.00000000
   0.00000000   0.00000000  -0.30684335   0.00000000   0.00000000   0.00000000
   0.00000000   0.00000000   0.00000000   1.00000000   0.00000000   0.00000000
   0.00000000   0.00000000   0.00000000   0.00000000   1.00000000   0.00000000
   0.00000000   0.00000000   0.00000000   0.00000000   0.00000000   1.00000000
* f-type functions
    3    2
        2.5819111000
        0.6124474800
        0.3230339500
   0.08379133   0.00000000
   0.00000000   1.91327985
   0.00000000   0.30322173

/P.def-TZVP.Hattig.10s7p7d3f.9s7p6d2f.
C. Hattig. Phys. Chem. Chem. Phys. 7 (2005) 59-66. doi:10.1039/b415208e
PHOSPHORUS (10s,7p,7d,3f) -> [9s,7p,6d,2f]
    15.0   3
* s-type functions
   10    9
      299.0223912700
      105.5310401700
       38.4566614000
       13.1815104300
        7.6713515300
        4.0340941500
        1.6945502300
        0.7276457300
        0.3171840000
        0.1635830600
   1.18280040   0.00000000   0.00000000   0.00000000   0.00000000   0.00000000   0.00000000   0.00000000   0.00000000
   0.06130569   0.00000000   0.00000000   0.00000000   0.00000000   0.00000000   0.00000000   0.00000000   0.00000000
   0.00000000  -0.67542636   0.00000000   0.00000000   0.00000000   0.00000000   0.00000000   0.00000000   0.00000000
   0.00000000   0.00000000   1.00000000   0.00000000   0.00000000   0.00000000   0.00000000   0.00000000   0.00000000
   0.00000000   0.00000000   0.00000000   1.00000000   0.00000000   0.00000000   0.00000000   0.00000000   0.00000000
   0.00000000   0.00000000   0.00000000   0.00000000   1.00000000   0.00000000   0.00000000   0.00000000   0.00000000
   0.00000000   0.00000000   0.00000000   0.00000000   0.00000000   1.00000000   0.00000000   0.00000000   0.00000000
   0.00000000   0.00000000   0.00000000   0.00000000   0.00000000   0.00000000   1.00000000   0.00000000   0.00000000
   0.00000000   0.00000000   0.00000000   0.00000000   0.00000000   0.00000000   0.00000000   1.00000000   0.00000000
   0.00000000   0.00000000   0.00000000   0.00000000   0.00000000   0.00000000   0.00000000   0.00000000   1.00000000
* p-type functions
    7    7
       89.3144073300
       12.4512271500
        6.1856931700
        2.2022185400
        0.8743075600
        0.5256028700
        0.2094277700
  -0.61569414   0.00000000   0.00000000   0.00000000   0.00000000   0.00000000   0.00000000
   0.00000000   1.30267720   0.00000000   0.00000000   0.00000000   0.00000000   0.00000000
   0.00000000   0.00000000   0.37332846   0.00000000   0.00000000   0.00000000   0.00000000
   0.00000000   0.00000000   0.00000000  -0.53223460   0.00000000   0.00000000   0.00000000
   0.00000000   0.00000000   0.00000000   0.00000000   1.00000000   0.00000000   0.00000000
   0.00000000   0.00000000   0.00000000   0.00000000   0.00000000   0.50000186   0.00000000
   0.00000000   0.00000000   0.00000000   0.00000000   0.00000000   0.00000000   0.49999414
* d-type functions
    7    6
       54.5224196100
       17.5855216200
        5.0562699700
        2.7850942700
        0.8643616500
        0.4826447600
        0.2038835100
   0.63626601   0.00000000   0.00000000   0.00000000   0.00000000   0.00000000
   1.54574911   0.00000000   0.00000000   0.00000000   0.00000000   0.00000000
   0.00000000   0.48209388   0.00000000   0.00000000   0.00000000   0.00000000
   0.00000000   0.00000000   0.11242962   0.00000000   0.00000000   0.00000000
   0.00000000   0.00000000   0.00000000   1.00000000   0.00000000   0.00000000
   0.00000000   0.00000000   0.00000000   0.00000000   1.00000000   0.00000000
   0.00000000   0.00000000   0.00000000   0.00000000   0.00000000   1.00000000
* f-type functions
    3    2
        3.3450198400
        0.8664110400
        0.4325877700
  -0.14052638   0.00000000
   0.00000000   1.93653653
   0.00000000   0.47879898

/S.def-TZVP.Hattig.10s7p7d3f.9s7p6d2f.
C. Hattig. Phys. Chem. Chem. Phys. 7 (2005) 59-66. doi:10.1039/b415208e
SULFUR (10s,7p,7d,3f) -> [9s,7p,6d,2f]
    16.0   3
* s-type functions
   10    9
      345.0916225300
      117.4422793400
       42.0037658000
       15.1820678500
        8.8217211500
        4.6859940100
        2.0640062600
        0.9360320900
        0.3891354900
        0.1978108200
   1.48919937   0.00000000   0.00000000   0.00000000   0.00000000   0.00000000   0.00000000   0.00000000   0.00000000
   0.17581282   0.00000000   0.00000000   0.00000000   0.00000000   0.00000000   0.00000000   0.00000000   0.00000000
   0.00000000  -1.09169378   0.00000000   0.00000000   0.00000000   0.00000000   0.00000000   0.00000000   0.00000000
   0.00000000   0.00000000   1.00000000   0.00000000   0.00000000   0.00000000   0.00000000   0.00000000   0.00000000
   0.00000000   0.00000000   0.00000000   1.00000000   0.00000000   0.00000000   0.00000000   0.00000000   0.00000000
   0.00000000   0.00000000   0.00000000   0.00000000   1.00000000   0.00000000   0.00000000   0.00000000   0.00000000
   0.00000000   0.00000000   0.00000000   0.00000000   0.00000000   1.00000000   0.00000000   0.00000000   0.00000000
   0.00000000   0.00000000   0.00000000   0.00000000   0.00000000   0.00000000   1.00000000   0.00000000   0.00000000
   0.00000000   0.00000000   0.00000000   0.00000000   0.00000000   0.00000000   0.00000000   1.00000000   0.00000000
   0.00000000   0.00000000   0.00000000   0.00000000   0.00000000   0.00000000   0.00000000   0.00000000   1.00000000
* p-type functions
    7    7
       96.6839276600
       15.0675008000
        7.5337504400
        2.6257893900
        1.1733056400
        0.6312515300
        0.3245487300
  -0.79923793   0.00000000   0.00000000   0.00000000   0.00000000   0.00000000   0.00000000
   0.00000000   1.54346023   0.00000000   0.00000000   0.00000000   0.00000000   0.00000000
   0.00000000   0.00000000   0.43808368   0.00000000   0.00000000   0.00000000   0.00000000
   0.00000000   0.00000000   0.00000000   1.00000000   0.00000000   0.00000000   0.00000000
   0.00000000   0.00000000   0.00000000   0.00000000   1.00000000   0.00000000   0.00000000
   0.00000000   0.00000000   0.00000000   0.00000000   0.00000000   1.00000000   0.00000000
   0.00000000   0.00000000   0.00000000   0.00000000   0.00000000   0.00000000   1.00000000
* d-type functions
    7    6
       61.8784792300
       20.1709652300
        6.1478623400
        3.2380252400
        1.1153847000
        0.6033666100
        0.2422421900
   1.07123562   0.00000000   0.00000000   0.00000000   0.00000000   0.00000000
   1.70422469   0.00000000   0.00000000   0.00000000   0.00000000   0.00000000
   0.00000000   0.55602682   0.00000000   0.00000000   0.00000000   0.00000000
   0.00000000   0.00000000   1.00000000   0.00000000   0.00000000   0.00000000
   0.00000000   0.00000000   0.00000000   1.00000000   0.00000000   0.00000000
   0.00000000   0.00000000   0.00000000   0.00000000   1.00000000   0.00000000
   0.00000000   0.00000000   0.00000000   0.00000000   0.00000000   1.00000000
* f-type functions
    3    2
        4.1251850900
        1.1323206100
        0.5293398600
  -0.28704524   0.00000000
   0.00000000   2.11288130
   0.00000000   0.58306401

/Cl.def-TZVP.Hattig.10s7p7d3f.9s7p6d2f.
C. Hattig. Phys. Chem. Chem. Phys. 7 (2005) 59-66. doi:10.1039/b415208e
CHLORINE (10s,7p,7d,3f) -> [9s,7p,6d,2f]
    17.0   3
* s-type functions
   10    9
      385.8900570900
      130.7088319300
       46.5374942900
       17.2464025800
        9.2729190600
        5.0191758400
        2.3435235500
        1.1583022200
        0.5606286600
        0.2644556200
   1.48825989   0.00000000   0.00000000   0.00000000   0.00000000   0.00000000   0.00000000   0.00000000   0.00000000
  -0.17009471   0.00000000   0.00000000   0.00000000   0.00000000   0.00000000   0.00000000   0.00000000   0.00000000
   0.00000000  -0.73044381   0.00000000   0.00000000   0.00000000   0.00000000   0.00000000   0.00000000   0.00000000
   0.00000000   0.00000000   1.00000000   0.00000000   0.00000000   0.00000000   0.00000000   0.00000000   0.00000000
   0.00000000   0.00000000   0.00000000   1.00000000   0.00000000   0.00000000   0.00000000   0.00000000   0.00000000
   0.00000000   0.00000000   0.00000000   0.00000000   1.00000000   0.00000000   0.00000000   0.00000000   0.00000000
   0.00000000   0.00000000   0.00000000   0.00000000   0.00000000   1.00000000   0.00000000   0.00000000   0.00000000
   0.00000000   0.00000000   0.00000000   0.00000000   0.00000000   0.00000000   1.00000000   0.00000000   0.00000000
   0.00000000   0.00000000   0.00000000   0.00000000   0.00000000   0.00000000   0.00000000   1.00000000   0.00000000
   0.00000000   0.00000000   0.00000000   0.00000000   0.00000000   0.00000000   0.00000000   0.00000000   1.00000000
* p-type functions
    7    7
       97.8577634800
       17.0050914600
       10.0029949700
        3.1216143100
        1.3891770400
        0.8171629600
        0.3689774200
  -0.75584284   0.00000000   0.00000000   0.00000000   0.00000000   0.00000000   0.00000000
   0.00000000   1.59383591   0.00000000   0.00000000   0.00000000   0.00000000   0.00000000
   0.00000000   0.00000000   0.27403007   0.00000000   0.00000000   0.00000000   0.00000000
   0.00000000   0.00000000   0.00000000  -8.01712910   0.00000000   0.00000000   0.00000000
   0.00000000   0.00000000   0.00000000   0.00000000   1.00000000   0.00000000   0.00000000
   0.00000000   0.00000000   0.00000000   0.00000000   0.00000000   1.00000000   0.00000000
   0.00000000   0.00000000   0.00000000   0.00000000   0.00000000   0.00000000   1.00000000
* d-type functions
    7    6
       72.6401456300
       23.8395740200
        7.4175145400
        4.0967730700
        1.3742730300
        0.7685223100
        0.2910272800
   0.69836327   0.00000000   0.00000000   0.00000000   0.00000000   0.00000000
   0.98150402   0.00000000   0.00000000   0.00000000   0.00000000   0.00000000
   0.00000000   0.36971355   0.00000000   0.00000000   0.00000000   0.00000000
   0.00000000   0.00000000   1.11137938   0.00000000   0.00000000   0.00000000
   0.00000000   0.00000000   0.00000000   1.00000000   0.00000000   0.00000000
   0.00000000   0.00000000   0.00000000   0.00000000   1.00000000   0.00000000
   0.00000000   0.00000000   0.00000000   0.00000000   0.00000000   1.00000000
* f-type functions
    3    2
        5.1154068800
        1.4639666100
        0.6665710800
  -0.38715894   0.00000000
   0.00000000   1.71390252
   0.00000000   0.70983780

/Ar.def-TZVP.Hattig.10s7p7d3f.9s7p6d2f.
C. Hattig. Phys. Chem. Chem. Phys. 7 (2005) 59-66. doi:10.1039/b415208e
ARGON (10s,7p,7d,3f) -> [9s,7p,6d,2f]
    18.0   3
* s-type functions
   10    9
      581.1840000000
      165.1010000000
       60.0502000000
       15.2676000000
        7.8728600000
        4.8121200000
        2.5148100000
        1.4315100000
        0.6837740000
        0.2867150000
  -1.01628000   0.00000000   0.00000000   0.00000000   0.00000000   0.00000000   0.00000000   0.00000000   0.00000000
   3.18488000   0.00000000   0.00000000   0.00000000   0.00000000   0.00000000   0.00000000   0.00000000   0.00000000
   0.00000000   1.00000000   0.00000000   0.00000000   0.00000000   0.00000000   0.00000000   0.00000000   0.00000000
   0.00000000   0.00000000   1.00000000   0.00000000   0.00000000   0.00000000   0.00000000   0.00000000   0.00000000
   0.00000000   0.00000000   0.00000000   1.00000000   0.00000000   0.00000000   0.00000000   0.00000000   0.00000000
   0.00000000   0.00000000   0.00000000   0.00000000   1.00000000   0.00000000   0.00000000   0.00000000   0.00000000
   0.00000000   0.00000000   0.00000000   0.00000000   0.00000000   1.00000000   0.00000000   0.00000000   0.00000000
   0.00000000   0.00000000   0.00000000   0.00000000   0.00000000   0.00000000   1.00000000   0.00000000   0.00000000
   0.00000000   0.00000000   0.00000000   0.00000000   0.00000000   0.00000000   0.00000000   1.00000000   0.00000000
   0.00000000   0.00000000   0.00000000   0.00000000   0.00000000   0.00000000   0.00000000   0.00000000   1.00000000
* p-type functions
    7    7
       95.7281000000
       23.7126000000
        9.5048900000
        3.8799100000
        2.0897500000
        1.1255500000
        0.5583440000
   1.00000000   0.00000000   0.00000000   0.00000000   0.00000000   0.00000000   0.00000000
   0.00000000   1.00000000   0.00000000   0.00000000   0.00000000   0.00000000   0.00000000
   0.00000000   0.00000000   1.00000000   0.00000000   0.00000000   0.00000000   0.00000000
   0.00000000   0.00000000   0.00000000   1.00000000   0.00000000   0.00000000   0.00000000
   0.00000000   0.00000000   0.00000000   0.00000000   1.00000000   0.00000000   0.00000000
   0.00000000   0.00000000   0.00000000   0.00000000   0.00000000   1.00000000   0.00000000
   0.00000000   0.00000000   0.00000000   0.00000000   0.00000000   0.00000000   1.00000000
* d-type functions
    7    6
       82.5392000000
       26.2760000000
        9.4074400000
        3.9125900000
        1.6272600000
        0.9499050000
        0.3479320000
   1.09088000   0.00000000   0.00000000   0.00000000   0.00000000   0.00000000
   2.11882000   0.00000000   0.00000000   0.00000000   0.00000000   0.00000000
   0.00000000   1.00000000   0.00000000   0.00000000   0.00000000   0.00000000
   0.00000000   0.00000000   1.00000000   0.00000000   0.00000000   0.00000000
   0.00000000   0.00000000   0.00000000   1.00000000   0.00000000   0.00000000
   0.00000000   0.00000000   0.00000000   0.00000000   1.00000000   0.00000000
   0.00000000   0.00000000   0.00000000   0.00000000   0.00000000   1.00000000
* f-type functions
    3    2
        6.0201600000
        1.7894800000
        0.7909780000
   1.00000000   0.00000000
   0.00000000   1.00000000
   0.00000000   0.55816200

/K.def-TZVP.Hattig.11s8p5d.11s6p3d.
C. Hattig. Phys. Chem. Chem. Phys. 7 (2005) 59-66. doi:10.1039/b415208e
POTASSIUM (11s,8p,5d) -> [11s,6p,3d]
    19.0   2
* s-type functions
   11   11
       81.1061862300
       34.0617496100
       15.1981702800
        6.5133964400
        2.5186457100
        1.3393898600
        0.6970827900
        0.3752523500
        0.2070037700
        0.1285399100
        0.0688732500
  -1.23750809   0.00000000   0.00000000   0.00000000   0.00000000   0.00000000   0.00000000   0.00000000   0.00000000   0.00000000   0.00000000
   0.00000000   1.32484700   0.00000000   0.00000000   0.00000000   0.00000000   0.00000000   0.00000000   0.00000000   0.00000000   0.00000000
   0.00000000   0.00000000   1.16453016   0.00000000   0.00000000   0.00000000   0.00000000   0.00000000   0.00000000   0.00000000   0.00000000
   0.00000000   0.00000000   0.00000000  -0.55784269   0.00000000   0.00000000   0.00000000   0.00000000   0.00000000   0.00000000   0.00000000
   0.00000000   0.00000000   0.00000000   0.00000000   1.41422068   0.00000000   0.00000000   0.00000000   0.00000000   0.00000000   0.00000000
   0.00000000   0.00000000   0.00000000   0.00000000   0.00000000  -1.85274778   0.00000000   0.00000000   0.00000000   0.00000000   0.00000000
   0.00000000   0.00000000   0.00000000   0.00000000   0.00000000   0.00000000   1.00000000   0.00000000   0.00000000   0.00000000   0.00000000
   0.00000000   0.00000000   0.00000000   0.00000000   0.00000000   0.00000000   0.00000000   1.00000000   0.00000000   0.00000000   0.00000000
   0.00000000   0.00000000   0.00000000   0.00000000   0.00000000   0.00000000   0.00000000   0.00000000   1.00000000   0.00000000   0.00000000
   0.00000000   0.00000000   0.00000000   0.00000000   0.00000000   0.00000000   0.00000000   0.00000000   0.00000000   1.00000000   0.00000000
   0.00000000   0.00000000   0.00000000   0.00000000   0.00000000   0.00000000   0.00000000   0.00000000   0.00000000   0.00000000   1.00000000
* p-type functions
    8    6
       14.8293462700
        6.3928861500
        2.1831211800
        1.1385661700
        0.6840132000
        0.2935454300
        0.1546183300
        0.0690026200
   1.04707883   0.00000000   0.00000000   0.00000000   0.00000000   0.00000000
  -1.18158996   0.00000000   0.00000000   0.00000000   0.00000000   0.00000000
   0.00000000   0.53436324   0.00000000   0.00000000   0.00000000   0.00000000
   0.00000000   1.38930508   0.00000000   0.00000000   0.00000000   0.00000000
   0.00000000   0.00000000   1.00000000   0.00000000   0.00000000   0.00000000
   0.00000000   0.00000000   0.00000000   1.00000000   0.00000000   0.00000000
   0.00000000   0.00000000   0.00000000   0.00000000   1.00000000   0.00000000
   0.00000000   0.00000000   0.00000000   0.00000000   0.00000000   1.00000000
* d-type functions
    5    3
       51.1965553600
        5.5626808600
        1.5994044500
        0.7986881400
        0.3381119100
   1.17346853   0.00000000   0.00000000
  -0.25128516   0.00000000   0.00000000
   1.66728717   0.00000000   0.00000000
   0.00000000   0.39829447   0.00000000
   0.00000000   0.00000000   1.00000000

/Ca.def-TZVP.Hattig.11s8p7d2f.11s8p7d2f.
C. Hattig. Phys. Chem. Chem. Phys. 7 (2005) 59-66. doi:10.1039/b415208e
CALCIUM (11s,8p,7d,2f) -> [11s,8p,7d,2f]
    20.0   3
* s-type functions
   11   11
       84.4903000000
       34.3316000000
       15.8493000000
        6.7833700000
        2.1576800000
        1.1754100000
        0.6403160000
        0.3488170000
        0.1900210000
        0.0985136000
        0.0579322000
   1.00000000   0.00000000   0.00000000   0.00000000   0.00000000   0.00000000   0.00000000   0.00000000   0.00000000   0.00000000   0.00000000
   0.00000000   1.00000000   0.00000000   0.00000000   0.00000000   0.00000000   0.00000000   0.00000000   0.00000000   0.00000000   0.00000000
   0.00000000   0.00000000   1.00000000   0.00000000   0.00000000   0.00000000   0.00000000   0.00000000   0.00000000   0.00000000   0.00000000
   0.00000000   0.00000000   0.00000000   1.00000000   0.00000000   0.00000000   0.00000000   0.00000000   0.00000000   0.00000000   0.00000000
   0.00000000   0.00000000   0.00000000   0.00000000   1.00000000   0.00000000   0.00000000   0.00000000   0.00000000   0.00000000   0.00000000
   0.00000000   0.00000000   0.00000000   0.00000000   0.00000000   1.00000000   0.00000000   0.00000000   0.00000000   0.00000000   0.00000000
   0.00000000   0.00000000   0.00000000   0.00000000   0.00000000   0.00000000   1.00000000   0.00000000   0.00000000   0.00000000   0.00000000
   0.00000000   0.00000000   0.00000000   0.00000000   0.00000000   0.00000000   0.00000000   1.00000000   0.00000000   0.00000000   0.00000000
   0.00000000   0.00000000   0.00000000   0.00000000   0.00000000   0.00000000   0.00000000   0.00000000   1.00000000   0.00000000   0.00000000
   0.00000000   0.00000000   0.00000000   0.00000000   0.00000000   0.00000000   0.00000000   0.00000000   0.00000000   1.00000000   0.00000000
   0.00000000   0.00000000   0.00000000   0.00000000   0.00000000   0.00000000   0.00000000   0.00000000   0.00000000   0.00000000   1.00000000
* p-type functions
    8    8
       17.1429000000
        7.1244100000
        2.5249800000
        1.3994700000
        0.8153900000
        0.2836840000
        0.1294140000
        0.0531892000
   1.00000000   0.00000000   0.00000000   0.00000000   0.00000000   0.00000000   0.00000000   0.00000000
   0.00000000   1.00000000   0.00000000   0.00000000   0.00000000   0.00000000   0.00000000   0.00000000
   0.00000000   0.00000000   1.00000000   0.00000000   0.00000000   0.00000000   0.00000000   0.00000000
   0.00000000   0.00000000   0.00000000   1.00000000   0.00000000   0.00000000   0.00000000   0.00000000
   0.00000000   0.00000000   0.00000000   0.00000000   1.00000000   0.00000000   0.00000000   0.00000000
   0.00000000   0.00000000   0.00000000   0.00000000   0.00000000   1.00000000   0.00000000   0.00000000
   0.00000000   0.00000000   0.00000000   0.00000000   0.00000000   0.00000000   1.00000000   0.00000000
   0.00000000   0.00000000   0.00000000   0.00000000   0.00000000   0.00000000   0.00000000   1.00000000
* d-type functions
    7    7
       51.0409000000
       21.0356000000
        8.8216400000
        2.1538600000
        0.8038170000
        0.3700200000
        0.1150520000
   1.00000000   0.00000000   0.00000000   0.00000000   0.00000000   0.00000000   0.00000000
   0.00000000   1.00000000   0.00000000   0.00000000   0.00000000   0.00000000   0.00000000
   0.00000000   0.00000000   1.00000000   0.00000000   0.00000000   0.00000000   0.00000000
   0.00000000   0.00000000   0.00000000   1.00000000   0.00000000   0.00000000   0.00000000
   0.00000000   0.00000000   0.00000000   0.00000000   1.00000000   0.00000000   0.00000000
   0.00000000   0.00000000   0.00000000   0.00000000   0.00000000   1.00000000   0.00000000
   0.00000000   0.00000000   0.00000000   0.00000000   0.00000000   0.00000000   1.00000000
* f-type functions
    2    2
        2.1175900000
        0.7487140000
   1.00000000   0.00000000
   0.00000000   1.00000000

/Sc.def-TZVP.Hattig.11s9p7d6f4g.9s8p7d4f4g.
C. Hattig. Phys. Chem. Chem. Phys. 7 (2005) 59-66. doi:10.1039/b415208e
SCANDIUM (11s,9p,7d,6f,4g) -> [9s,8p,7d,4f,4g]
    21.0   4
* s-type functions
   11    9
      142.8277540000
       63.0325680000
       28.3608040000
       12.9844120000
        6.0363910000
        2.8434220000
        1.3540430000
        0.6503340000
        0.3142760000
        0.1524400000
        0.0740320000
  -1.00001234   0.00000000   0.00000000   0.00000000   0.00000000   0.00000000   0.00000000   0.00000000   0.00000000
   1.18907662   0.00000000   0.00000000   0.00000000   0.00000000   0.00000000   0.00000000   0.00000000   0.00000000
   0.47567415   0.00000000   0.00000000   0.00000000   0.00000000   0.00000000   0.00000000   0.00000000   0.00000000
   0.00000000   1.00000000   0.00000000   0.00000000   0.00000000   0.00000000   0.00000000   0.00000000   0.00000000
   0.00000000   0.00000000   1.00000000   0.00000000   0.00000000   0.00000000   0.00000000   0.00000000   0.00000000
   0.00000000   0.00000000   0.00000000   1.00000000   0.00000000   0.00000000   0.00000000   0.00000000   0.00000000
   0.00000000   0.00000000   0.00000000   0.00000000   1.00000000   0.00000000   0.00000000   0.00000000   0.00000000
   0.00000000   0.00000000   0.00000000   0.00000000   0.00000000   1.00000000   0.00000000   0.00000000   0.00000000
   0.00000000   0.00000000   0.00000000   0.00000000   0.00000000   0.00000000   1.00000000   0.00000000   0.00000000
   0.00000000   0.00000000   0.00000000   0.00000000   0.00000000   0.00000000   0.00000000   1.00000000   0.00000000
   0.00000000   0.00000000   0.00000000   0.00000000   0.00000000   0.00000000   0.00000000   0.00000000   1.00000000
* p-type functions
    9    8
      105.4666142200
       27.1212992800
        7.3548792200
        2.5806789600
        1.5571999200
        0.8535634100
        0.3773295700
        0.1606769800
        0.0844258200
  -0.61023691   0.00000000   0.00000000   0.00000000   0.00000000   0.00000000   0.00000000   0.00000000
   1.53429092   0.00000000   0.00000000   0.00000000   0.00000000   0.00000000   0.00000000   0.00000000
   0.00000000  -1.89494750   0.00000000   0.00000000   0.00000000   0.00000000   0.00000000   0.00000000
   0.00000000   0.00000000   1.90096641   0.00000000   0.00000000   0.00000000   0.00000000   0.00000000
   0.00000000   0.00000000   0.00000000   1.00000000   0.00000000   0.00000000   0.00000000   0.00000000
   0.00000000   0.00000000   0.00000000   0.00000000   1.00000000   0.00000000   0.00000000   0.00000000
   0.00000000   0.00000000   0.00000000   0.00000000   0.00000000   1.00000000   0.00000000   0.00000000
   0.00000000   0.00000000   0.00000000   0.00000000   0.00000000   0.00000000   1.00000000   0.00000000
   0.00000000   0.00000000   0.00000000   0.00000000   0.00000000   0.00000000   0.00000000   1.00000000
* d-type functions
    7    7
       47.3544830400
       12.5149743000
        3.5971344900
        2.0279508200
        0.9011522800
        0.4441106300
        0.1776960600
   1.83565796   0.00000000   0.00000000   0.00000000   0.00000000   0.00000000   0.00000000
   0.00000000  10.00026494   0.00000000   0.00000000   0.00000000   0.00000000   0.00000000
   0.00000000   0.00000000   0.26176831   0.00000000   0.00000000   0.00000000   0.00000000
   0.00000000   0.00000000   0.00000000   1.48413350   0.00000000   0.00000000   0.00000000
   0.00000000   0.00000000   0.00000000   0.00000000   1.00000000   0.00000000   0.00000000
   0.00000000   0.00000000   0.00000000   0.00000000   0.00000000   1.00000000   0.00000000
   0.00000000   0.00000000   0.00000000   0.00000000   0.00000000   0.00000000   1.00000000
* f-type functions
    6    4
       41.4794440700
       13.7581205500
        5.2583575600
        2.2618479900
        0.9542274900
        0.4342421500
  -0.38673926   0.00000000   0.00000000   0.00000000
  -0.77565678   0.00000000   0.00000000   0.00000000
   1.28705537   0.00000000   0.00000000   0.00000000
   0.00000000   2.44433864   0.00000000   0.00000000
   0.00000000   0.00000000   1.00000000   0.00000000
   0.00000000   0.00000000   0.00000000   1.00000000
* g-type functions
    4    4
       11.0764753000
        2.5162764500
        0.9262644100
        0.3247879500
   1.20765971   0.00000000   0.00000000   0.00000000
   0.00000000   1.32980530   0.00000000   0.00000000
   0.00000000   0.00000000   1.19065989   0.00000000
   0.00000000   0.00000000   0.00000000   1.00000000

/Ti.def-TZVP.Hattig.11s9p7d6f4g.9s8p7d4f4g.
C. Hattig. Phys. Chem. Chem. Phys. 7 (2005) 59-66. doi:10.1039/b415208e
TITANIUM (11s,9p,7d,6f,4g) -> [9s,8p,7d,4f,4g]
    22.0   4
* s-type functions
   11    9
       81.1679430000
       34.9839920000
       15.7753470000
        7.4160550000
        3.6197070000
        1.8258570000
        0.9469220000
        0.5020820000
        0.2705410000
        0.1472130000
        0.0803690000
  -0.46912465   0.00000000   0.00000000   0.00000000   0.00000000   0.00000000   0.00000000   0.00000000   0.00000000
   1.22325389   0.00000000   0.00000000   0.00000000   0.00000000   0.00000000   0.00000000   0.00000000   0.00000000
   0.16158866   0.00000000   0.00000000   0.00000000   0.00000000   0.00000000   0.00000000   0.00000000   0.00000000
   0.00000000   1.00000000   0.00000000   0.00000000   0.00000000   0.00000000   0.00000000   0.00000000   0.00000000
   0.00000000   0.00000000   1.00000000   0.00000000   0.00000000   0.00000000   0.00000000   0.00000000   0.00000000
   0.00000000   0.00000000   0.00000000   1.00000000   0.00000000   0.00000000   0.00000000   0.00000000   0.00000000
   0.00000000   0.00000000   0.00000000   0.00000000   1.00000000   0.00000000   0.00000000   0.00000000   0.00000000
   0.00000000   0.00000000   0.00000000   0.00000000   0.00000000   1.00000000   0.00000000   0.00000000   0.00000000
   0.00000000   0.00000000   0.00000000   0.00000000   0.00000000   0.00000000   1.00000000   0.00000000   0.00000000
   0.00000000   0.00000000   0.00000000   0.00000000   0.00000000   0.00000000   0.00000000   1.00000000   0.00000000
   0.00000000   0.00000000   0.00000000   0.00000000   0.00000000   0.00000000   0.00000000   0.00000000   1.00000000
* p-type functions
    9    8
      140.6856669300
       29.1602520800
        9.2197299700
        2.7086348200
        1.2939493700
        0.8384093800
        0.4624682500
        0.1752088200
        0.0896089200
  -0.43677854   0.00000000   0.00000000   0.00000000   0.00000000   0.00000000   0.00000000   0.00000000
   1.14251493   0.00000000   0.00000000   0.00000000   0.00000000   0.00000000   0.00000000   0.00000000
   0.00000000  -1.38341550   0.00000000   0.00000000   0.00000000   0.00000000   0.00000000   0.00000000
   0.00000000   0.00000000   1.92366822   0.00000000   0.00000000   0.00000000   0.00000000   0.00000000
   0.00000000   0.00000000   0.00000000   1.00000000   0.00000000   0.00000000   0.00000000   0.00000000
   0.00000000   0.00000000   0.00000000   0.00000000   1.00000000   0.00000000   0.00000000   0.00000000
   0.00000000   0.00000000   0.00000000   0.00000000   0.00000000   1.00000000   0.00000000   0.00000000
   0.00000000   0.00000000   0.00000000   0.00000000   0.00000000   0.00000000   1.00000000   0.00000000
   0.00000000   0.00000000   0.00000000   0.00000000   0.00000000   0.00000000   0.00000000   1.00000000
* d-type functions
    7    7
       53.9168019400
       13.2883251700
        3.8397527800
        2.2495847000
        1.0018070300
        0.5587377300
        0.2226543500
   2.12793972   0.00000000   0.00000000   0.00000000   0.00000000   0.00000000   0.00000000
   0.00000000  10.00044281   0.00000000   0.00000000   0.00000000   0.00000000   0.00000000
   0.00000000   0.00000000   0.48195499   0.00000000   0.00000000   0.00000000   0.00000000
   0.00000000   0.00000000   0.00000000   1.20896060   0.00000000   0.00000000   0.00000000
   0.00000000   0.00000000   0.00000000   0.00000000   1.00000000   0.00000000   0.00000000
   0.00000000   0.00000000   0.00000000   0.00000000   0.00000000   1.00000000   0.00000000
   0.00000000   0.00000000   0.00000000   0.00000000   0.00000000   0.00000000   1.00000000
* f-type functions
    6    4
       37.4325092800
       11.3695100600
        5.5204310800
        2.4499470000
        1.1273859600
        0.5087371900
  -0.69808072   0.00000000   0.00000000   0.00000000
  -0.91447755   0.00000000   0.00000000   0.00000000
   2.09574250   0.00000000   0.00000000   0.00000000
   0.00000000   2.24643050   0.00000000   0.00000000
   0.00000000   0.00000000   1.00000000   0.00000000
   0.00000000   0.00000000   0.00000000   1.00000000
* g-type functions
    4    4
        8.6451811000
        2.8121449400
        1.0934860000
        0.4226537700
   1.06907815   0.00000000   0.00000000   0.00000000
   0.00000000   1.35436482   0.00000000   0.00000000
   0.00000000   0.00000000  -0.07083341   0.00000000
   0.00000000   0.00000000   0.00000000   1.00000000

/V.def-TZVP.Hattig.11s9p7d6f4g.9s8p7d4f4g.
C. Hattig. Phys. Chem. Chem. Phys. 7 (2005) 59-66. doi:10.1039/b415208e
VANADIUM (11s,9p,7d,6f,4g) -> [9s,8p,7d,4f,4g]
    23.0   4
* s-type functions
   11    9
       88.6064360000
       38.3586940000
       17.3370380000
        8.1525670000
        3.9728310000
        1.9973550000
        1.0309070000
        0.5433370000
        0.2907550000
        0.1570360000
        0.0850780000
  -0.46912392   0.00000000   0.00000000   0.00000000   0.00000000   0.00000000   0.00000000   0.00000000   0.00000000
   1.22325390   0.00000000   0.00000000   0.00000000   0.00000000   0.00000000   0.00000000   0.00000000   0.00000000
   0.16158860   0.00000000   0.00000000   0.00000000   0.00000000   0.00000000   0.00000000   0.00000000   0.00000000
   0.00000000   1.00000000   0.00000000   0.00000000   0.00000000   0.00000000   0.00000000   0.00000000   0.00000000
   0.00000000   0.00000000   1.00000000   0.00000000   0.00000000   0.00000000   0.00000000   0.00000000   0.00000000
   0.00000000   0.00000000   0.00000000   1.00000000   0.00000000   0.00000000   0.00000000   0.00000000   0.00000000
   0.00000000   0.00000000   0.00000000   0.00000000   1.00000000   0.00000000   0.00000000   0.00000000   0.00000000
   0.00000000   0.00000000   0.00000000   0.00000000   0.00000000   1.00000000   0.00000000   0.00000000   0.00000000
   0.00000000   0.00000000   0.00000000   0.00000000   0.00000000   0.00000000   1.00000000   0.00000000   0.00000000
   0.00000000   0.00000000   0.00000000   0.00000000   0.00000000   0.00000000   0.00000000   1.00000000   0.00000000
   0.00000000   0.00000000   0.00000000   0.00000000   0.00000000   0.00000000   0.00000000   0.00000000   1.00000000
* p-type functions
    9    8
      132.7431271500
       34.5276182300
       10.5952693300
        2.9651429700
        1.0717973700
        0.7183884900
        0.4078137800
        0.1952978700
        0.0925296500
  -0.38589676   0.00000000   0.00000000   0.00000000   0.00000000   0.00000000   0.00000000   0.00000000
   1.55957847   0.00000000   0.00000000   0.00000000   0.00000000   0.00000000   0.00000000   0.00000000
   0.00000000  -1.55866496   0.00000000   0.00000000   0.00000000   0.00000000   0.00000000   0.00000000
   0.00000000   0.00000000   2.55839482   0.00000000   0.00000000   0.00000000   0.00000000   0.00000000
   0.00000000   0.00000000   0.00000000   1.00000000   0.00000000   0.00000000   0.00000000   0.00000000
   0.00000000   0.00000000   0.00000000   0.00000000   1.00000000   0.00000000   0.00000000   0.00000000
   0.00000000   0.00000000   0.00000000   0.00000000   0.00000000   1.00000000   0.00000000   0.00000000
   0.00000000   0.00000000   0.00000000   0.00000000   0.00000000   0.00000000   1.00000000   0.00000000
   0.00000000   0.00000000   0.00000000   0.00000000   0.00000000   0.00000000   0.00000000   1.00000000
* d-type functions
    7    7
       60.7590940700
       14.4964512800
        4.4508098000
        2.3546926900
        1.2148312700
        0.6166427200
        0.2625181300
   1.91741241   0.00000000   0.00000000   0.00000000   0.00000000   0.00000000   0.00000000
   0.00000000  10.00036781   0.00000000   0.00000000   0.00000000   0.00000000   0.00000000
   0.00000000   0.00000000   0.88000574   0.00000000   0.00000000   0.00000000   0.00000000
   0.00000000   0.00000000   0.00000000   1.39691577   0.00000000   0.00000000   0.00000000
   0.00000000   0.00000000   0.00000000   0.00000000   1.00000000   0.00000000   0.00000000
   0.00000000   0.00000000   0.00000000   0.00000000   0.00000000   1.00000000   0.00000000
   0.00000000   0.00000000   0.00000000   0.00000000   0.00000000   0.00000000   1.00000000
* f-type functions
    6    4
       35.8115960100
        9.9110499500
        4.4857556600
        2.2726676400
        1.0619494900
        0.4326334300
  -1.09332867   0.00000000   0.00000000   0.00000000
   0.08542952   0.00000000   0.00000000   0.00000000
   2.32024648   0.00000000   0.00000000   0.00000000
   0.00000000   1.61088373   0.00000000   0.00000000
   0.00000000   0.00000000   1.00000000   0.00000000
   0.00000000   0.00000000   0.00000000   1.00000000
* g-type functions
    4    4
        9.6102733200
        3.1454587300
        1.3065482600
        0.4760329800
   1.14981350   0.00000000   0.00000000   0.00000000
   0.00000000   1.42408240   0.00000000   0.00000000
   0.00000000   0.00000000  -0.21289120   0.00000000
   0.00000000   0.00000000   0.00000000   1.00000000

/Cr.def-TZVP.Hattig.11s9p7d6f4g.9s8p7d4f4g.
C. Hattig. Phys. Chem. Chem. Phys. 7 (2005) 59-66. doi:10.1039/b415208e
CHROMIUM (11s,9p,7d,6f,4g) -> [9s,8p,7d,4f,4g]
    24.0   4
* s-type functions
   11    9
      104.8096780000
       46.0501450000
       21.0394630000
        9.9629280000
        4.8716980000
        2.4497960000
        1.2612030000
        0.6615260000
        0.3517170000
        0.1885420000
        0.1013490000
  -0.54197522   0.00000000   0.00000000   0.00000000   0.00000000   0.00000000   0.00000000   0.00000000   0.00000000
   1.22218150   0.00000000   0.00000000   0.00000000   0.00000000   0.00000000   0.00000000   0.00000000   0.00000000
   0.28193726   0.00000000   0.00000000   0.00000000   0.00000000   0.00000000   0.00000000   0.00000000   0.00000000
   0.00000000   1.00000000   0.00000000   0.00000000   0.00000000   0.00000000   0.00000000   0.00000000   0.00000000
   0.00000000   0.00000000   1.00000000   0.00000000   0.00000000   0.00000000   0.00000000   0.00000000   0.00000000
   0.00000000   0.00000000   0.00000000   1.00000000   0.00000000   0.00000000   0.00000000   0.00000000   0.00000000
   0.00000000   0.00000000   0.00000000   0.00000000   1.00000000   0.00000000   0.00000000   0.00000000   0.00000000
   0.00000000   0.00000000   0.00000000   0.00000000   0.00000000   1.00000000   0.00000000   0.00000000   0.00000000
   0.00000000   0.00000000   0.00000000   0.00000000   0.00000000   0.00000000   1.00000000   0.00000000   0.00000000
   0.00000000   0.00000000   0.00000000   0.00000000   0.00000000   0.00000000   0.00000000   1.00000000   0.00000000
   0.00000000   0.00000000   0.00000000   0.00000000   0.00000000   0.00000000   0.00000000   0.00000000   1.00000000
* p-type functions
    9    8
      155.1791680000
       45.5418490000
       11.6383630000
        3.2216106000
        1.1334363000
        0.6830333700
        0.3403968100
        0.1852009200
        0.0962853100
  -0.76299511   0.00000000   0.00000000   0.00000000   0.00000000   0.00000000   0.00000000   0.00000000
   1.55833318   0.00000000   0.00000000   0.00000000   0.00000000   0.00000000   0.00000000   0.00000000
   0.00000000  -1.11212722   0.00000000   0.00000000   0.00000000   0.00000000   0.00000000   0.00000000
   0.00000000   0.00000000   1.92638544   0.00000000   0.00000000   0.00000000   0.00000000   0.00000000
   0.00000000   0.00000000   0.00000000   1.00000000   0.00000000   0.00000000   0.00000000   0.00000000
   0.00000000   0.00000000   0.00000000   0.00000000   1.00000000   0.00000000   0.00000000   0.00000000
   0.00000000   0.00000000   0.00000000   0.00000000   0.00000000   1.00000000   0.00000000   0.00000000
   0.00000000   0.00000000   0.00000000   0.00000000   0.00000000   0.00000000   1.00000000   0.00000000
   0.00000000   0.00000000   0.00000000   0.00000000   0.00000000   0.00000000   0.00000000   1.00000000
* d-type functions
    7    7
       65.7647750000
       16.1121200000
        4.6145228000
        2.5048705600
        1.1349756100
        0.5874787300
        0.2312270200
   1.98746283   0.00000000   0.00000000   0.00000000   0.00000000   0.00000000   0.00000000
   0.00000000  10.00025600   0.00000000   0.00000000   0.00000000   0.00000000   0.00000000
   0.00000000   0.00000000   0.93926992   0.00000000   0.00000000   0.00000000   0.00000000
   0.00000000   0.00000000   0.00000000   1.17434421   0.00000000   0.00000000   0.00000000
   0.00000000   0.00000000   0.00000000   0.00000000   1.00000000   0.00000000   0.00000000
   0.00000000   0.00000000   0.00000000   0.00000000   0.00000000   1.00000000   0.00000000
   0.00000000   0.00000000   0.00000000   0.00000000   0.00000000   0.00000000   1.00000000
* f-type functions
    6    4
       34.9172720000
        8.0904085000
        3.9495169000
        1.9846926000
        0.9355959900
        0.3451321000
  -1.19832591   0.00000000   0.00000000   0.00000000
   0.91307778   0.00000000   0.00000000   0.00000000
   2.37020114   0.00000000   0.00000000   0.00000000
   0.00000000   1.13677141   0.00000000   0.00000000
   0.00000000   0.00000000   1.33025157   0.00000000
   0.00000000   0.00000000   0.00000000   0.83742811
* g-type functions
    4    4
        9.9387204000
        3.3213414000
        1.1147914500
        0.4051897300
   1.08516128   0.00000000   0.00000000   0.00000000
   0.00000000   1.23003918   0.00000000   0.00000000
   0.00000000   0.00000000  -0.11281477   0.00000000
   0.00000000   0.00000000   0.00000000   1.00000000

/Mn.def-TZVP.Hattig.11s9p7d6f4g.9s8p7d4f4g.
C. Hattig. Phys. Chem. Chem. Phys. 7 (2005) 59-66. doi:10.1039/b415208e
MANGANESE (11s,9p,7d,6f,4g) -> [9s,8p,7d,4f,4g]
    25.0   4
* s-type functions
   11    9
       99.3679100000
       43.1695870000
       19.5426870000
        9.1875030000
        4.4683720000
        2.2385930000
        1.1498090000
        0.6024020000
        0.3201860000
        0.1716790000
        0.0923220000
  -0.46910932   0.00000000   0.00000000   0.00000000   0.00000000   0.00000000   0.00000000   0.00000000   0.00000000
   1.22325418   0.00000000   0.00000000   0.00000000   0.00000000   0.00000000   0.00000000   0.00000000   0.00000000
   0.16158665   0.00000000   0.00000000   0.00000000   0.00000000   0.00000000   0.00000000   0.00000000   0.00000000
   0.00000000   1.00000000   0.00000000   0.00000000   0.00000000   0.00000000   0.00000000   0.00000000   0.00000000
   0.00000000   0.00000000   1.00000000   0.00000000   0.00000000   0.00000000   0.00000000   0.00000000   0.00000000
   0.00000000   0.00000000   0.00000000   1.00000000   0.00000000   0.00000000   0.00000000   0.00000000   0.00000000
   0.00000000   0.00000000   0.00000000   0.00000000   1.00000000   0.00000000   0.00000000   0.00000000   0.00000000
   0.00000000   0.00000000   0.00000000   0.00000000   0.00000000   1.00000000   0.00000000   0.00000000   0.00000000
   0.00000000   0.00000000   0.00000000   0.00000000   0.00000000   0.00000000   1.00000000   0.00000000   0.00000000
   0.00000000   0.00000000   0.00000000   0.00000000   0.00000000   0.00000000   0.00000000   1.00000000   0.00000000
   0.00000000   0.00000000   0.00000000   0.00000000   0.00000000   0.00000000   0.00000000   0.00000000   1.00000000
* p-type functions
    9    8
      155.3978200000
       41.5964560000
       13.6234220000
        3.6878562600
        1.3426672900
        0.7843197800
        0.4145019800
        0.2171039500
        0.0991753200
  -0.53416708   0.00000000   0.00000000   0.00000000   0.00000000   0.00000000   0.00000000   0.00000000
   1.55887539   0.00000000   0.00000000   0.00000000   0.00000000   0.00000000   0.00000000   0.00000000
   0.00000000  -1.13030571   0.00000000   0.00000000   0.00000000   0.00000000   0.00000000   0.00000000
   0.00000000   0.00000000   1.91367551   0.00000000   0.00000000   0.00000000   0.00000000   0.00000000
   0.00000000   0.00000000   0.00000000   1.00000000   0.00000000   0.00000000   0.00000000   0.00000000
   0.00000000   0.00000000   0.00000000   0.00000000   1.00000000   0.00000000   0.00000000   0.00000000
   0.00000000   0.00000000   0.00000000   0.00000000   0.00000000   1.00000000   0.00000000   0.00000000
   0.00000000   0.00000000   0.00000000   0.00000000   0.00000000   0.00000000   1.00000000   0.00000000
   0.00000000   0.00000000   0.00000000   0.00000000   0.00000000   0.00000000   0.00000000   1.00000000
* d-type functions
    7    7
       76.6996330000
       19.9214640000
        6.2107812000
        3.1876949000
        1.6360046500
        0.7321084300
        0.3471464800
   0.97947023   0.00000000   0.00000000   0.00000000   0.00000000   0.00000000   0.00000000
   0.00000000  10.00031419   0.00000000   0.00000000   0.00000000   0.00000000   0.00000000
   0.00000000   0.00000000   0.55889086   0.00000000   0.00000000   0.00000000   0.00000000
   0.00000000   0.00000000   0.00000000   1.32757984   0.00000000   0.00000000   0.00000000
   0.00000000   0.00000000   0.00000000   0.00000000   1.00000000   0.00000000   0.00000000
   0.00000000   0.00000000   0.00000000   0.00000000   0.00000000   1.00000000   0.00000000
   0.00000000   0.00000000   0.00000000   0.00000000   0.00000000   0.00000000   1.00000000
* f-type functions
    6    4
       44.9333270000
       14.4453980000
        5.3363089000
        2.6879106200
        1.1877547400
        0.5063670000
  -1.06646064   0.00000000   0.00000000   0.00000000
   0.16186427   0.00000000   0.00000000   0.00000000
   2.29081079   0.00000000   0.00000000   0.00000000
   0.00000000   1.16471781   0.00000000   0.00000000
   0.00000000   0.00000000   1.00000000   0.00000000
   0.00000000   0.00000000   0.00000000   1.00000000
* g-type functions
    4    4
       12.0115080000
        3.9886972800
        1.7212468000
        0.6171155400
   1.00984668   0.00000000   0.00000000   0.00000000
   0.00000000   1.20165038   0.00000000   0.00000000
   0.00000000   0.00000000  -0.25066922   0.00000000
   0.00000000   0.00000000   0.00000000   1.00000000

/Fe.def-TZVP.Hattig.11s9p7d6f4g.9s8p7d4f4g.
C. Hattig. Phys. Chem. Chem. Phys. 7 (2005) 59-66. doi:10.1039/b415208e
IRON (11s,9p,7d,6f,4g) -> [9s,8p,7d,4f,4g]
    26.0   4
* s-type functions
   11    9
      103.8534910000
       45.2786130000
       20.5643930000
        9.6967740000
        4.7289770000
        2.3751000000
        1.2227440000
        0.6419920000
        0.3419230000
        0.1836930000
        0.0989740000
  -0.37210225   0.00000000   0.00000000   0.00000000   0.00000000   0.00000000   0.00000000   0.00000000   0.00000000
   1.19914003   0.00000000   0.00000000   0.00000000   0.00000000   0.00000000   0.00000000   0.00000000   0.00000000
  -0.16381019   0.00000000   0.00000000   0.00000000   0.00000000   0.00000000   0.00000000   0.00000000   0.00000000
   0.00000000   1.00000000   0.00000000   0.00000000   0.00000000   0.00000000   0.00000000   0.00000000   0.00000000
   0.00000000   0.00000000   1.00000000   0.00000000   0.00000000   0.00000000   0.00000000   0.00000000   0.00000000
   0.00000000   0.00000000   0.00000000   1.00000000   0.00000000   0.00000000   0.00000000   0.00000000   0.00000000
   0.00000000   0.00000000   0.00000000   0.00000000   1.00000000   0.00000000   0.00000000   0.00000000   0.00000000
   0.00000000   0.00000000   0.00000000   0.00000000   0.00000000   1.00000000   0.00000000   0.00000000   0.00000000
   0.00000000   0.00000000   0.00000000   0.00000000   0.00000000   0.00000000   1.00000000   0.00000000   0.00000000
   0.00000000   0.00000000   0.00000000   0.00000000   0.00000000   0.00000000   0.00000000   1.00000000   0.00000000
   0.00000000   0.00000000   0.00000000   0.00000000   0.00000000   0.00000000   0.00000000   0.00000000   1.00000000
* p-type functions
    9    8
      154.8887875500
       43.5711190000
       15.4732130000
        4.0701798300
        1.5490568900
        0.9205323700
        0.4635966000
        0.2424028800
        0.1000657100
  -0.45001013   0.00000000   0.00000000   0.00000000   0.00000000   0.00000000   0.00000000   0.00000000
   1.54999995   0.00000000   0.00000000   0.00000000   0.00000000   0.00000000   0.00000000   0.00000000
   0.00000000  -1.21908267   0.00000000   0.00000000   0.00000000   0.00000000   0.00000000   0.00000000
   0.00000000   0.00000000   2.05074008   0.00000000   0.00000000   0.00000000   0.00000000   0.00000000
   0.00000000   0.00000000   0.00000000   1.00000000   0.00000000   0.00000000   0.00000000   0.00000000
   0.00000000   0.00000000   0.00000000   0.00000000   1.00000000   0.00000000   0.00000000   0.00000000
   0.00000000   0.00000000   0.00000000   0.00000000   0.00000000   1.00000000   0.00000000   0.00000000
   0.00000000   0.00000000   0.00000000   0.00000000   0.00000000   0.00000000   1.00000000   0.00000000
   0.00000000   0.00000000   0.00000000   0.00000000   0.00000000   0.00000000   0.00000000   1.00000000
* d-type functions
    7    7
       84.0959910000
       20.6830260000
        6.3032531900
        3.3600212700
        1.6644623600
        0.7408377100
        0.3791376000
   1.25000007   0.00000000   0.00000000   0.00000000   0.00000000   0.00000000   0.00000000
   0.00000000  10.00029400   0.00000000   0.00000000   0.00000000   0.00000000   0.00000000
   0.00000000   0.00000000   1.25723226   0.00000000   0.00000000   0.00000000   0.00000000
   0.00000000   0.00000000   0.00000000   1.79128728   0.00000000   0.00000000   0.00000000
   0.00000000   0.00000000   0.00000000   0.00000000   1.00000000   0.00000000   0.00000000
   0.00000000   0.00000000   0.00000000   0.00000000   0.00000000   1.00000000   0.00000000
   0.00000000   0.00000000   0.00000000   0.00000000   0.00000000   0.00000000   1.00000000
* f-type functions
    6    4
       43.1298022500
       12.1289180300
        5.3208989800
        2.6861954900
        1.2279411400
        0.5107294600
  -1.10219690   0.00000000   0.00000000   0.00000000
   0.53544293   0.00000000   0.00000000   0.00000000
   2.25007370   0.00000000   0.00000000   0.00000000
   0.00000000   0.84376834   0.00000000   0.00000000
   0.00000000   0.00000000   1.00000000   0.00000000
   0.00000000   0.00000000   0.00000000   1.00000000
* g-type functions
    4    4
       13.3016870000
        4.4386185500
        1.8821833100
        0.6685094600
   1.17076280   0.00000000   0.00000000   0.00000000
   0.00000000   1.25220510   0.00000000   0.00000000
   0.00000000   0.00000000  -0.26634128   0.00000000
   0.00000000   0.00000000   0.00000000   1.00000000

/Co.def-TZVP.Hattig.11s9p7d6f4g.9s8p7d4f4g.
C. Hattig. Phys. Chem. Chem. Phys. 7 (2005) 59-66. doi:10.1039/b415208e
COBALT (11s,9p,7d,6f,4g) -> [9s,8p,7d,4f,4g]
    27.0   4
* s-type functions
   11    9
       87.9137475000
       39.5341640000
       18.5189230000
        9.0050995000
        4.5280715000
        2.3444430000
        1.2441075000
        0.6733155000
[...]
   0.00000000   0.00000000   1.00000000   0.00000000   0.00000000
   0.00000000   0.00000000   0.00000000   1.00000000   0.00000000
   0.00000000   0.00000000   0.00000000   0.00000000   1.00000000
* g-type functions
    4    3
       20.2232304000
        6.5279359000
        2.0947081800
        0.5662317900
   1.64027713   0.00000000   0.00000000
   0.66603472   0.00000000   0.00000000
   0.00000000   1.00000000   0.00000000
   0.00000000   0.00000000   1.00000000

/As.def-TZVP.Hattig.10s9p8d6f4g.10s9p8d5f3g.
C. Hattig. Phys. Chem. Chem. Phys. 7 (2005) 59-66. doi:10.1039/b415208e
ARSENIC (10s,9p,8d,6f,4g) -> [10s,9p,8d,5f,3g]
    33.0   4
* s-type functions
   10   10
       83.5594755400
       35.7033575200
       15.1933465300
        6.0740193100
        4.3594269100
        1.9832392300
        0.6555461100
        0.4169831300
        0.2077828400
        0.1046631800
   1.00000000   0.00000000   0.00000000   0.00000000   0.00000000   0.00000000   0.00000000   0.00000000   0.00000000   0.00000000
   0.00000000   1.00000000   0.00000000   0.00000000   0.00000000   0.00000000   0.00000000   0.00000000   0.00000000   0.00000000
   0.00000000   0.00000000   1.00000000   0.00000000   0.00000000   0.00000000   0.00000000   0.00000000   0.00000000   0.00000000
   0.00000000   0.00000000   0.00000000   1.00000000   0.00000000   0.00000000   0.00000000   0.00000000   0.00000000   0.00000000
   0.00000000   0.00000000   0.00000000   0.00000000   1.00000000   0.00000000   0.00000000   0.00000000   0.00000000   0.00000000
   0.00000000   0.00000000   0.00000000   0.00000000   0.00000000   1.00000000   0.00000000   0.00000000   0.00000000   0.00000000
   0.00000000   0.00000000   0.00000000   0.00000000   0.00000000   0.00000000   1.00000000   0.00000000   0.00000000   0.00000000
   0.00000000   0.00000000   0.00000000   0.00000000   0.00000000   0.00000000   0.00000000   1.00000000   0.00000000   0.00000000
   0.00000000   0.00000000   0.00000000   0.00000000   0.00000000   0.00000000   0.00000000   0.00000000   1.00000000   0.00000000
   0.00000000   0.00000000   0.00000000   0.00000000   0.00000000   0.00000000   0.00000000   0.00000000   0.00000000   1.00000000
* p-type functions
    9    9
       48.1150064000
       30.5598858700
        7.5696640100
        3.7784025500
        1.8895131900
        1.2292428700
        0.4513965400
        0.2510809900
        0.0949955900
   1.00000000   0.00000000   0.00000000   0.00000000   0.00000000   0.00000000   0.00000000   0.00000000   0.00000000
   0.00000000   1.00000000   0.00000000   0.00000000   0.00000000   0.00000000   0.00000000   0.00000000   0.00000000
   0.00000000   0.00000000   1.00000000   0.00000000   0.00000000   0.00000000   0.00000000   0.00000000   0.00000000
   0.00000000   0.00000000   0.00000000   1.00000000   0.00000000   0.00000000   0.00000000   0.00000000   0.00000000
   0.00000000   0.00000000   0.00000000   0.00000000   1.00000000   0.00000000   0.00000000   0.00000000   0.00000000
   0.00000000   0.00000000   0.00000000   0.00000000   0.00000000   1.00000000   0.00000000   0.00000000   0.00000000
   0.00000000   0.00000000   0.00000000   0.00000000   0.00000000   0.00000000   1.00000000   0.00000000   0.00000000
   0.00000000   0.00000000   0.00000000   0.00000000   0.00000000   0.00000000   0.00000000   1.00000000   0.00000000
   0.00000000   0.00000000   0.00000000   0.00000000   0.00000000   0.00000000   0.00000000   0.00000000   1.00000000
* d-type functions
    8    8
      108.6506300000
       39.7257520000
        9.0871775000
        3.2718720000
        1.3370460000
        0.7771790000
        0.5048083200
        0.2107694900
   1.00000000   0.00000000   0.00000000   0.00000000   0.00000000   0.00000000   0.00000000   0.00000000
   0.00000000   1.00000000   0.00000000   0.00000000   0.00000000   0.00000000   0.00000000   0.00000000
   0.00000000   0.00000000   1.00000000   0.00000000   0.00000000   0.00000000   0.00000000   0.00000000
   0.00000000   0.00000000   0.00000000   1.00000000   0.00000000   0.00000000   0.00000000   0.00000000
   0.00000000   0.00000000   0.00000000   0.00000000   1.00000000   0.00000000   0.00000000   0.00000000
   0.00000000   0.00000000   0.00000000   0.00000000   0.00000000   1.00000000   0.00000000   0.00000000
   0.00000000   0.00000000   0.00000000   0.00000000   0.00000000   0.00000000   1.00000000   0.00000000
   0.00000000   0.00000000   0.00000000   0.00000000   0.00000000   0.00000000   0.00000000   1.00000000
* f-type functions
    6    5
       98.4368100000
       11.1691500000
        2.5376624000
        1.4994621000
        0.6095826800
        0.2960096300
  -0.40606138   0.00000000   0.00000000   0.00000000   0.00000000
   0.99999301   0.00000000   0.00000000   0.00000000   0.00000000
   0.00000000   1.00000000   0.00000000   0.00000000   0.00000000
   0.00000000   0.00000000   1.00000000   0.00000000   0.00000000
   0.00000000   0.00000000   0.00000000   1.00000000   0.00000000
   0.00000000   0.00000000   0.00000000   0.00000000   1.00000000
* g-type functions
    4    3
       22.8328819800
        7.5219903200
        2.5116957700
        0.6708798200
   1.29896232   0.00000000   0.00000000
   0.53990149   0.00000000   0.00000000
   0.00000000   1.00000000   0.00000000
   0.00000000   0.00000000   1.00000000

/Se.def-TZVP.Hattig.10s9p8d6f4g.10s9p8d5f3g.
C. Hattig. Phys. Chem. Chem. Phys. 7 (2005) 59-66. doi:10.1039/b415208e
SELENIUM (10s,9p,8d,6f,4g) -> [10s,9p,8d,5f,3g]
    34.0   4
* s-type functions
   10   10
       88.9536610000
       39.1361700000
       16.8805710000
        6.7620320000
        4.7977001000
        2.0779773000
        0.5725870500
        0.3686178900
        0.1981457400
        0.1044903900
   1.00000000   0.00000000   0.00000000   0.00000000   0.00000000   0.00000000   0.00000000   0.00000000   0.00000000   0.00000000
   0.00000000   1.00000000   0.00000000   0.00000000   0.00000000   0.00000000   0.00000000   0.00000000   0.00000000   0.00000000
   0.00000000   0.00000000   1.00000000   0.00000000   0.00000000   0.00000000   0.00000000   0.00000000   0.00000000   0.00000000
   0.00000000   0.00000000   0.00000000   1.00000000   0.00000000   0.00000000   0.00000000   0.00000000   0.00000000   0.00000000
   0.00000000   0.00000000   0.00000000   0.00000000   1.00000000   0.00000000   0.00000000   0.00000000   0.00000000   0.00000000
   0.00000000   0.00000000   0.00000000   0.00000000   0.00000000   1.00000000   0.00000000   0.00000000   0.00000000   0.00000000
   0.00000000   0.00000000   0.00000000   0.00000000   0.00000000   0.00000000   1.00000000   0.00000000   0.00000000   0.00000000
   0.00000000   0.00000000   0.00000000   0.00000000   0.00000000   0.00000000   0.00000000   1.00000000   0.00000000   0.00000000
   0.00000000   0.00000000   0.00000000   0.00000000   0.00000000   0.00000000   0.00000000   0.00000000   1.00000000   0.00000000
   0.00000000   0.00000000   0.00000000   0.00000000   0.00000000   0.00000000   0.00000000   0.00000000   0.00000000   1.00000000
* p-type functions
    9    9
       52.3667890000
       31.9092020000
        8.4360919000
        3.8326396000
        1.7051308000
        1.0025552000
        0.5229606100
        0.2716070500
        0.0959580700
   1.00000000   0.00000000   0.00000000   0.00000000   0.00000000   0.00000000   0.00000000   0.00000000   0.00000000
   0.00000000   1.00000000   0.00000000   0.00000000   0.00000000   0.00000000   0.00000000   0.00000000   0.00000000
   0.00000000   0.00000000   1.00000000   0.00000000   0.00000000   0.00000000   0.00000000   0.00000000   0.00000000
   0.00000000   0.00000000   0.00000000   1.00000000   0.00000000   0.00000000   0.00000000   0.00000000   0.00000000
   0.00000000   0.00000000   0.00000000   0.00000000   1.00000000   0.00000000   0.00000000   0.00000000   0.00000000
   0.00000000   0.00000000   0.00000000   0.00000000   0.00000000   1.00000000   0.00000000   0.00000000   0.00000000
   0.00000000   0.00000000   0.00000000   0.00000000   0.00000000   0.00000000   1.00000000   0.00000000   0.00000000
   0.00000000   0.00000000   0.00000000   0.00000000   0.00000000   0.00000000   0.00000000   1.00000000   0.00000000
   0.00000000   0.00000000   0.00000000   0.00000000   0.00000000   0.00000000   0.00000000   0.00000000   1.00000000
* d-type functions
    8    8
      111.3787900000
       41.3428890000
       10.0870190000
        3.4698687000
        1.3396318000
        0.7615414200
        0.4929400500
        0.2058733800
   1.00000000   0.00000000   0.00000000   0.00000000   0.00000000   0.00000000   0.00000000   0.00000000
   0.00000000   1.00000000   0.00000000   0.00000000   0.00000000   0.00000000   0.00000000   0.00000000
   0.00000000   0.00000000   1.00000000   0.00000000   0.00000000   0.00000000   0.00000000   0.00000000
   0.00000000   0.00000000   0.00000000   1.00000000   0.00000000   0.00000000   0.00000000   0.00000000
   0.00000000   0.00000000   0.00000000   0.00000000   1.00000000   0.00000000   0.00000000   0.00000000
   0.00000000   0.00000000   0.00000000   0.00000000   0.00000000   1.00000000   0.00000000   0.00000000
   0.00000000   0.00000000   0.00000000   0.00000000   0.00000000   0.00000000   1.00000000   0.00000000
   0.00000000   0.00000000   0.00000000   0.00000000   0.00000000   0.00000000   0.00000000   1.00000000
* f-type functions
    6    5
       98.6786370000
       12.0826100000
        2.7326716000
        1.4926461000
        0.7110602000
        0.3301546700
  -0.40633906   0.00000000   0.00000000   0.00000000   0.00000000
   1.00454950   0.00000000   0.00000000   0.00000000   0.00000000
   0.00000000   1.00000000   0.00000000   0.00000000   0.00000000
   0.00000000   0.00000000   1.00000000   0.00000000   0.00000000
   0.00000000   0.00000000   0.00000000   1.00000000   0.00000000
   0.00000000   0.00000000   0.00000000   0.00000000   1.00000000
* g-type functions
    4    3
       24.8355280000
        8.0527681000
        2.9598149000
        0.7628365500
   1.32344275   0.00000000   0.00000000
   0.50893400   0.00000000   0.00000000
   0.00000000   1.00000000   0.00000000
   0.00000000   0.00000000   1.00000000

/Br.def-TZVP.Hattig.10s9p8d6f4g.10s9p8d5f3g.
C. Hattig. Phys. Chem. Chem. Phys. 7 (2005) 59-66. doi:10.1039/b415208e
BROMINE (10s,9p,8d,6f,4g) -> [10s,9p,8d,5f,3g]
    35.0   4
* s-type functions
   10   10
       95.8356507800
       42.8337810100
       17.7523149000
        7.6735606600
        5.1848616100
        2.3363811400
        0.6988324900
        0.4081267800
        0.1992229600
        0.0991485700
   1.00000000   0.00000000   0.00000000   0.00000000   0.00000000   0.00000000   0.00000000   0.00000000   0.00000000   0.00000000
   0.00000000   1.00000000   0.00000000   0.00000000   0.00000000   0.00000000   0.00000000   0.00000000   0.00000000   0.00000000
   0.00000000   0.00000000   1.00000000   0.00000000   0.00000000   0.00000000   0.00000000   0.00000000   0.00000000   0.00000000
   0.00000000   0.00000000   0.00000000   1.00000000   0.00000000   0.00000000   0.00000000   0.00000000   0.00000000   0.00000000
   0.00000000   0.00000000   0.00000000   0.00000000   1.00000000   0.00000000   0.00000000   0.00000000   0.00000000   0.00000000
   0.00000000   0.00000000   0.00000000   0.00000000   0.00000000   1.00000000   0.00000000   0.00000000   0.00000000   0.00000000
   0.00000000   0.00000000   0.00000000   0.00000000   0.00000000   0.00000000   1.00000000   0.00000000   0.00000000   0.00000000
   0.00000000   0.00000000   0.00000000   0.00000000   0.00000000   0.00000000   0.00000000   1.00000000   0.00000000   0.00000000
   0.00000000   0.00000000   0.00000000   0.00000000   0.00000000   0.00000000   0.00000000   0.00000000   1.00000000   0.00000000
   0.00000000   0.00000000   0.00000000   0.00000000   0.00000000   0.00000000   0.00000000   0.00000000   0.00000000   1.00000000
* p-type functions
    9    9
       51.7165827700
       32.3228641900
        9.0984885500
        4.1106498900
        1.8401454800
        1.1676035600
        0.6363997600
        0.3226561900
        0.0902528000
   1.00000000   0.00000000   0.00000000   0.00000000   0.00000000   0.00000000   0.00000000   0.00000000   0.00000000
   0.00000000   1.00000000   0.00000000   0.00000000   0.00000000   0.00000000   0.00000000   0.00000000   0.00000000
   0.00000000   0.00000000   1.00000000   0.00000000   0.00000000   0.00000000   0.00000000   0.00000000   0.00000000
   0.00000000   0.00000000   0.00000000   1.00000000   0.00000000   0.00000000   0.00000000   0.00000000   0.00000000
   0.00000000   0.00000000   0.00000000   0.00000000   1.00000000   0.00000000   0.00000000   0.00000000   0.00000000
   0.00000000   0.00000000   0.00000000   0.00000000   0.00000000   1.00000000   0.00000000   0.00000000   0.00000000
   0.00000000   0.00000000   0.00000000   0.00000000   0.00000000   0.00000000   1.00000000   0.00000000   0.00000000
   0.00000000   0.00000000   0.00000000   0.00000000   0.00000000   0.00000000   0.00000000   1.00000000   0.00000000
   0.00000000   0.00000000   0.00000000   0.00000000   0.00000000   0.00000000   0.00000000   0.00000000   1.00000000
* d-type functions
    8    8
      125.6820827700
       43.6920423600
       11.1166674400
        3.8163193300
        1.5468856000
        0.8687390000
        0.5645260300
        0.2308758200
   1.00000000   0.00000000   0.00000000   0.00000000   0.00000000   0.00000000   0.00000000   0.00000000
   0.00000000   1.00000000   0.00000000   0.00000000   0.00000000   0.00000000   0.00000000   0.00000000
   0.00000000   0.00000000   1.00000000   0.00000000   0.00000000   0.00000000   0.00000000   0.00000000
   0.00000000   0.00000000   0.00000000   1.00000000   0.00000000   0.00000000   0.00000000   0.00000000
   0.00000000   0.00000000   0.00000000   0.00000000   1.00000000   0.00000000   0.00000000   0.00000000
   0.00000000   0.00000000   0.00000000   0.00000000   0.00000000   1.00000000   0.00000000   0.00000000
   0.00000000   0.00000000   0.00000000   0.00000000   0.00000000   0.00000000   1.00000000   0.00000000
   0.00000000   0.00000000   0.00000000   0.00000000   0.00000000   0.00000000   0.00000000   1.00000000
* f-type functions
    6    5
      103.3268531800
       13.2905238700
        3.1947259700
        1.7218393000
        0.8430675500
        0.3919392700
  -0.53239629   0.00000000   0.00000000   0.00000000   0.00000000
   1.28358500   0.00000000   0.00000000   0.00000000   0.00000000
   0.00000000   1.00000000   0.00000000   0.00000000   0.00000000
   0.00000000   0.00000000   1.00000000   0.00000000   0.00000000
   0.00000000   0.00000000   0.00000000   1.00000000   0.00000000
   0.00000000   0.00000000   0.00000000   0.00000000   1.00000000
* g-type functions
    4    3
       27.2175944900
        8.7593072600
        3.4689689600
        0.8903064800
   1.64808852   0.00000000   0.00000000
   0.69184278   0.00000000   0.00000000
   0.00000000   1.00000000   0.00000000
   0.00000000   0.00000000   1.00000000

/Kr.def-TZVP.Hattig.10s9p8d6f4g.10s9p8d5f3g.
C. Hattig. Phys. Chem. Chem. Phys. 7 (2005) 59-66. doi:10.1039/b415208e
KRYPTON (10s,9p,8d,6f,4g) -> [10s,9p,8d,5f,3g]
    36.0   4
* s-type functions
   10   10
       82.1068000000
       43.4969000000
       22.1338000000
       10.9625000000
        4.0944000000
        1.6540800000
        0.9763770000
        0.5481920000
        0.2831450000
        0.1750840000
   1.00000000   0.00000000   0.00000000   0.00000000   0.00000000   0.00000000   0.00000000   0.00000000   0.00000000   0.00000000
   0.00000000   1.00000000   0.00000000   0.00000000   0.00000000   0.00000000   0.00000000   0.00000000   0.00000000   0.00000000
   0.00000000   0.00000000   1.00000000   0.00000000   0.00000000   0.00000000   0.00000000   0.00000000   0.00000000   0.00000000
   0.00000000   0.00000000   0.00000000   1.00000000   0.00000000   0.00000000   0.00000000   0.00000000   0.00000000   0.00000000
   0.00000000   0.00000000   0.00000000   0.00000000   1.00000000   0.00000000   0.00000000   0.00000000   0.00000000   0.00000000
   0.00000000   0.00000000   0.00000000   0.00000000   0.00000000   1.00000000   0.00000000   0.00000000   0.00000000   0.00000000
   0.00000000   0.00000000   0.00000000   0.00000000   0.00000000   0.00000000   1.00000000   0.00000000   0.00000000   0.00000000
   0.00000000   0.00000000   0.00000000   0.00000000   0.00000000   0.00000000   0.00000000   1.00000000   0.00000000   0.00000000
   0.00000000   0.00000000   0.00000000   0.00000000   0.00000000   0.00000000   0.00000000   0.00000000   1.00000000   0.00000000
   0.00000000   0.00000000   0.00000000   0.00000000   0.00000000   0.00000000   0.00000000   0.00000000   0.00000000   1.00000000
* p-type functions
    9    9
       68.4304000000
       28.2381000000
       11.2522000000
        4.2690200000
        2.1440700000
        1.3523900000
        0.7260560000
        0.3805760000
        0.1634670000
   1.00000000   0.00000000   0.00000000   0.00000000   0.00000000   0.00000000   0.00000000   0.00000000   0.00000000
   0.00000000   1.00000000   0.00000000   0.00000000   0.00000000   0.00000000   0.00000000   0.00000000   0.00000000
   0.00000000   0.00000000   1.00000000   0.00000000   0.00000000   0.00000000   0.00000000   0.00000000   0.00000000
   0.00000000   0.00000000   0.00000000   1.00000000   0.00000000   0.00000000   0.00000000   0.00000000   0.00000000
   0.00000000   0.00000000   0.00000000   0.00000000   1.00000000   0.00000000   0.00000000   0.00000000   0.00000000
   0.00000000   0.00000000   0.00000000   0.00000000   0.00000000   1.00000000   0.00000000   0.00000000   0.00000000
   0.00000000   0.00000000   0.00000000   0.00000000   0.00000000   0.00000000   1.00000000   0.00000000   0.00000000
   0.00000000   0.00000000   0.00000000   0.00000000   0.00000000   0.00000000   0.00000000   1.00000000   0.00000000
   0.00000000   0.00000000   0.00000000   0.00000000   0.00000000   0.00000000   0.00000000   0.00000000   1.00000000
* d-type functions
    8    8
      134.4710000000
       48.1020000000
       11.7666000000
        4.4302900000
        1.6805600000
        0.9940950000
        0.6517170000
        0.2593420000
   1.00000000   0.00000000   0.00000000   0.00000000   0.00000000   0.00000000   0.00000000   0.00000000
   0.00000000   1.00000000   0.00000000   0.00000000   0.00000000   0.00000000   0.00000000   0.00000000
   0.00000000   0.00000000   1.00000000   0.00000000   0.00000000   0.00000000   0.00000000   0.00000000
   0.00000000   0.00000000   0.00000000   1.00000000   0.00000000   0.00000000   0.00000000   0.00000000
   0.00000000   0.00000000   0.00000000   0.00000000   1.00000000   0.00000000   0.00000000   0.00000000
   0.00000000   0.00000000   0.00000000   0.00000000   0.00000000   1.00000000   0.00000000   0.00000000
   0.00000000   0.00000000   0.00000000   0.00000000   0.00000000   0.00000000   1.00000000   0.00000000
   0.00000000   0.00000000   0.00000000   0.00000000   0.00000000   0.00000000   0.00000000   1.00000000
* f-type functions
    6    5
      111.4430000000
       14.4995000000
        3.6885100000
        1.9519500000
        0.9629790000
        0.4518340000
  -0.62022300   0.00000000   0.00000000   0.00000000   0.00000000
   1.57075000   0.00000000   0.00000000   0.00000000   0.00000000
   0.00000000   1.00000000   0.00000000   0.00000000   0.00000000
   0.00000000   0.00000000   1.00000000   0.00000000   0.00000000
   0.00000000   0.00000000   0.00000000   1.00000000   0.00000000
   0.00000000   0.00000000   0.00000000   0.00000000   1.00000000
* g-type functions
    4    3
       29.1944000000
        9.3581900000
        3.9324100000
        0.9948930000
   1.27370000   0.00000000   0.00000000
   0.61573200   0.00000000   0.00000000
   0.00000000   1.00000000   0.00000000
   0.00000000   0.00000000   1.00000000

