************************************************************************
* This file is part of OpenMolcas.                                     *
*                                                                      *
* OpenMolcas is free software; you can redistribute it and/or modify   *
* it under the terms of the GNU Lesser General Public License, v. 2.1. *
* OpenMolcas is distributed in the hope that it will be useful, but it *
* is provided "as is" and without any express or implied warranties.   *
* For more details see the full text of the license in the file        *
* LICENSE or in <http://www.gnu.org/licenses/>.                        *
************************************************************************
/As.def-TZVP..10s9p8d6f4g.10s9p8d5f3g.
 Ref.: Weigend, Häser, Patzelt, Ahlrichs, CPL 294 (1998) 143.
AS       (10s9p8d6f4g) -> [10s9p8d5f3g]

	33.000000 4
* S-type functions
    10 10
        83.55947554
        35.70335752
        15.19334653
        6.07401931
        4.35942691
        1.98323923
        .65554611
        .41698313
        .20778284
        .10466318
 1.00000000 0.0 0.0 0.0 0.0 0.0 0.0 0.0 0.0 0.0
 0.0 1.00000000 0.0 0.0 0.0 0.0 0.0 0.0 0.0 0.0
 0.0 0.0 1.00000000 0.0 0.0 0.0 0.0 0.0 0.0 0.0
 0.0 0.0 0.0 1.00000000 0.0 0.0 0.0 0.0 0.0 0.0
 0.0 0.0 0.0 0.0 1.00000000 0.0 0.0 0.0 0.0 0.0
 0.0 0.0 0.0 0.0 0.0 1.00000000 0.0 0.0 0.0 0.0
 0.0 0.0 0.0 0.0 0.0 0.0 1.00000000 0.0 0.0 0.0
 0.0 0.0 0.0 0.0 0.0 0.0 0.0 1.00000000 0.0 0.0
 0.0 0.0 0.0 0.0 0.0 0.0 0.0 0.0 1.00000000 0.0
 0.0 0.0 0.0 0.0 0.0 0.0 0.0 0.0 0.0 1.00000000
* P-type functions
    9 9
        48.11500640
        30.55988587
        7.56966401
        3.77840255
        1.88951319
        1.22924287
        .45139654
        .25108099
        .09499559
 1.00000000 0.0 0.0 0.0 0.0 0.0 0.0 0.0 0.0
 0.0 1.00000000 0.0 0.0 0.0 0.0 0.0 0.0 0.0
 0.0 0.0 1.00000000 0.0 0.0 0.0 0.0 0.0 0.0
 0.0 0.0 0.0 1.00000000 0.0 0.0 0.0 0.0 0.0
 0.0 0.0 0.0 0.0 1.00000000 0.0 0.0 0.0 0.0
 0.0 0.0 0.0 0.0 0.0 1.00000000 0.0 0.0 0.0
 0.0 0.0 0.0 0.0 0.0 0.0 1.00000000 0.0 0.0
 0.0 0.0 0.0 0.0 0.0 0.0 0.0 1.00000000 0.0
 0.0 0.0 0.0 0.0 0.0 0.0 0.0 0.0 1.00000000
* D-type functions
    8 8
        108.65063000
        39.72575200
        9.08717750
        3.27187200
        1.33704600
        .77717900
        .50480832
        .21076949
 1.00000000 0.0 0.0 0.0 0.0 0.0 0.0 0.0
 0.0 1.00000000 0.0 0.0 0.0 0.0 0.0 0.0
 0.0 0.0 1.00000000 0.0 0.0 0.0 0.0 0.0
 0.0 0.0 0.0 1.00000000 0.0 0.0 0.0 0.0
 0.0 0.0 0.0 0.0 1.00000000 0.0 0.0 0.0
 0.0 0.0 0.0 0.0 0.0 1.00000000 0.0 0.0
 0.0 0.0 0.0 0.0 0.0 0.0 1.00000000 0.0
 0.0 0.0 0.0 0.0 0.0 0.0 0.0 1.00000000
* F-type functions
    6 5
        98.43681000
        11.16915000
        2.53766240
        1.49946210
        .60958268
        .29600963
 -.40606138 0.0 0.0 0.0 0.0
 .99999301 0.0 0.0 0.0 0.0
 0.0 1.00000000 0.0 0.0 0.0
 0.0 0.0 1.00000000 0.0 0.0
 0.0 0.0 0.0 1.00000000 0.0
 0.0 0.0 0.0 0.0 1.00000000
* G-type functions
    4 3
        22.83288198
        7.52199032
        2.51169577
        .67087982
 1.29896232 0.0 0.0
 .53990149 0.0 0.0
 0.0 1.00000000 0.0
 0.0 0.0 1.00000000

/Au.def-TZVP..8s7p6d5f4g.8s7p6d4f3g.
 Ref.: Weigend, Häser, Patzelt, Ahlrichs, CPL 294 (1998) 143.
AU       (8s7p6d5f4g) -> [8s7p6d4f3g]

	79.000000 4
* S-type functions
    8 8
        6.33361710
        4.35923760
        2.84928130
        1.60262780
        .74275601
        .43473061
        .19184658
        .09939883
 1.00000000 0.0 0.0 0.0 0.0 0.0 0.0 0.0
 0.0 1.00000000 0.0 0.0 0.0 0.0 0.0 0.0
 0.0 0.0 1.00000000 0.0 0.0 0.0 0.0 0.0
 0.0 0.0 0.0 1.00000000 0.0 0.0 0.0 0.0
 0.0 0.0 0.0 0.0 1.00000000 0.0 0.0 0.0
 0.0 0.0 0.0 0.0 0.0 1.00000000 0.0 0.0
 0.0 0.0 0.0 0.0 0.0 0.0 1.00000000 0.0
 0.0 0.0 0.0 0.0 0.0 0.0 0.0 1.00000000
* P-type functions
    7 7
        12.06703700
        4.30751270
        2.96181970
        1.72658460
        .72146657
        .40497646
        .13470000
 1.00000000 0.0 0.0 0.0 0.0 0.0 0.0
 0.0 1.00000000 0.0 0.0 0.0 0.0 0.0
 0.0 0.0 1.00000000 0.0 0.0 0.0 0.0
 0.0 0.0 0.0 1.00000000 0.0 0.0 0.0
 0.0 0.0 0.0 0.0 1.00000000 0.0 0.0
 0.0 0.0 0.0 0.0 0.0 1.00000000 0.0
 0.0 0.0 0.0 0.0 0.0 0.0 1.00000000
* D-type functions
    6 6
        4.55326430
        2.97480080
        1.80611270
        .77207472
        .47010190
        .23202019
 1.00000000 0.0 0.0 0.0 0.0 0.0
 0.0 1.00000000 0.0 0.0 0.0 0.0
 0.0 0.0 1.00000000 0.0 0.0 0.0
 0.0 0.0 0.0 1.00000000 0.0 0.0
 0.0 0.0 0.0 0.0 1.00000000 0.0
 0.0 0.0 0.0 0.0 0.0 1.00000000
* F-type functions
    5 4
        6.54889400
        2.82216120
        1.46055260
        .70067829
        .25246567
 -.55874583 0.0 0.0 0.0
 2.03214640 0.0 0.0 0.0
 0.0 1.00000000 0.0 0.0
 0.0 0.0 1.00000000 0.0
 0.0 0.0 0.0 1.00000000
* G-type functions
    4 3
        3.67033553
        2.50551826
        .97475799
        .40817537
 -.31437517 0.0 0.0
 2.00013756 0.0 0.0
 0.0 1.00000000 0.0
 0.0 0.0 1.00000000

/Br.def-TZVP..10s9p8d6f4g.10s9p8d5f3g.
 Ref.: Weigend, Häser, Patzelt, Ahlrichs, CPL 294 (1998) 143.
BR       (10s9p8d6f4g) -> [10s9p8d5f3g]

	35.000000 4
* S-type functions
    10 10
        95.83565078
        42.83378101
        17.75231490
        7.67356066
        5.18486161
        2.33638114
        .69883249
        .40812678
        .19922296
        .09914857
 1.00000000 0.0 0.0 0.0 0.0 0.0 0.0 0.0 0.0 0.0
 0.0 1.00000000 0.0 0.0 0.0 0.0 0.0 0.0 0.0 0.0
 0.0 0.0 1.00000000 0.0 0.0 0.0 0.0 0.0 0.0 0.0
 0.0 0.0 0.0 1.00000000 0.0 0.0 0.0 0.0 0.0 0.0
 0.0 0.0 0.0 0.0 1.00000000 0.0 0.0 0.0 0.0 0.0
 0.0 0.0 0.0 0.0 0.0 1.00000000 0.0 0.0 0.0 0.0
 0.0 0.0 0.0 0.0 0.0 0.0 1.00000000 0.0 0.0 0.0
 0.0 0.0 0.0 0.0 0.0 0.0 0.0 1.00000000 0.0 0.0
 0.0 0.0 0.0 0.0 0.0 0.0 0.0 0.0 1.00000000 0.0
 0.0 0.0 0.0 0.0 0.0 0.0 0.0 0.0 0.0 1.00000000
* P-type functions
    9 9
        51.71658277
        32.32286419
        9.09848855
        4.11064989
        1.84014548
        1.16760356
        .63639976
        .32265619
        .09025280
 1.00000000 0.0 0.0 0.0 0.0 0.0 0.0 0.0 0.0
 0.0 1.00000000 0.0 0.0 0.0 0.0 0.0 0.0 0.0
 0.0 0.0 1.00000000 0.0 0.0 0.0 0.0 0.0 0.0
 0.0 0.0 0.0 1.00000000 0.0 0.0 0.0 0.0 0.0
 0.0 0.0 0.0 0.0 1.00000000 0.0 0.0 0.0 0.0
 0.0 0.0 0.0 0.0 0.0 1.00000000 0.0 0.0 0.0
 0.0 0.0 0.0 0.0 0.0 0.0 1.00000000 0.0 0.0
 0.0 0.0 0.0 0.0 0.0 0.0 0.0 1.00000000 0.0
 0.0 0.0 0.0 0.0 0.0 0.0 0.0 0.0 1.00000000
* D-type functions
    8 8
        125.68208277
        43.69204236
        11.11666744
        3.81631933
        1.54688560
        .86873900
        .56452603
        .23087582
 1.00000000 0.0 0.0 0.0 0.0 0.0 0.0 0.0
 0.0 1.00000000 0.0 0.0 0.0 0.0 0.0 0.0
 0.0 0.0 1.00000000 0.0 0.0 0.0 0.0 0.0
 0.0 0.0 0.0 1.00000000 0.0 0.0 0.0 0.0
 0.0 0.0 0.0 0.0 1.00000000 0.0 0.0 0.0
 0.0 0.0 0.0 0.0 0.0 1.00000000 0.0 0.0
 0.0 0.0 0.0 0.0 0.0 0.0 1.00000000 0.0
 0.0 0.0 0.0 0.0 0.0 0.0 0.0 1.00000000
* F-type functions
    6 5
        103.32685318
        13.29052387
        3.19472597
        1.72183930
        .84306755
        .39193927
 -.53239629 0.0 0.0 0.0 0.0
 1.28358500 0.0 0.0 0.0 0.0
 0.0 1.00000000 0.0 0.0 0.0
 0.0 0.0 1.00000000 0.0 0.0
 0.0 0.0 0.0 1.00000000 0.0
 0.0 0.0 0.0 0.0 1.00000000
* G-type functions
    4 3
        27.21759449
        8.75930726
        3.46896896
        .89030648
 1.64808852 0.0 0.0
 .69184278 0.0 0.0
 0.0 1.00000000 0.0
 0.0 0.0 1.00000000

/Cd.def-TZVP..8s7p6d5f4g.8s6p6d4f3g.
 Ref.: Weigend, Häser, Patzelt, Ahlrichs, CPL 294 (1998) 143.
CD       (8s7p6d5f4g) -> [8s6p6d4f3g]

	48.000000 4
* S-type functions
    8 8
        11.31767548
        5.65251492
        3.09836311
        1.63171598
        .84943049
        .45868174
        .20393730
        .09323074
 1.00000000 0.0 0.0 0.0 0.0 0.0 0.0 0.0
 0.0 1.00000000 0.0 0.0 0.0 0.0 0.0 0.0
 0.0 0.0 1.00000000 0.0 0.0 0.0 0.0 0.0
 0.0 0.0 0.0 1.00000000 0.0 0.0 0.0 0.0
 0.0 0.0 0.0 0.0 1.00000000 0.0 0.0 0.0
 0.0 0.0 0.0 0.0 0.0 1.00000000 0.0 0.0
 0.0 0.0 0.0 0.0 0.0 0.0 1.00000000 0.0
 0.0 0.0 0.0 0.0 0.0 0.0 0.0 1.00000000
* P-type functions
    7 6
        20.64327076
        6.37023833
        3.08308662
        1.80123841
        .67634456
        .32261900
        .11345339
 -.19060902 0.0 0.0 0.0 0.0 0.0
 1.50058074 0.0 0.0 0.0 0.0 0.0
 0.0 1.00000000 0.0 0.0 0.0 0.0
 0.0 0.0 1.00000000 0.0 0.0 0.0
 0.0 0.0 0.0 1.00000000 0.0 0.0
 0.0 0.0 0.0 0.0 1.00000000 0.0
 0.0 0.0 0.0 0.0 0.0 1.00000000
* D-type functions
    6 6
        7.21939691
        4.09433185
        2.23044782
        1.15600570
        .59469377
        .31144856
 1.00000000 0.0 0.0 0.0 0.0 0.0
 0.0 1.00000000 0.0 0.0 0.0 0.0
 0.0 0.0 1.00000000 0.0 0.0 0.0
 0.0 0.0 0.0 1.00000000 0.0 0.0
 0.0 0.0 0.0 0.0 1.00000000 0.0
 0.0 0.0 0.0 0.0 0.0 1.00000000
* F-type functions
    5 4
        8.93856649
        3.34490178
        2.31009205
        .69488269
        .33470736
 -.24654750 0.0 0.0 0.0
 3.00041741 0.0 0.0 0.0
 0.0 1.00000000 0.0 0.0
 0.0 0.0 1.00000000 0.0
 0.0 0.0 0.0 1.00000000
* G-type functions
    4 3
        5.36945540
        3.38060427
        1.21099344
        .57689974
 .29441576 0.0 0.0
 1.03710846 0.0 0.0
 0.0 1.00000000 0.0
 0.0 0.0 1.00000000

/Ga.def-TZVP..10s9p8d6f4g.10s9p8d5f3g.
 Ref.: Weigend, Häser, Patzelt, Ahlrichs, CPL 294 (1998) 143.
GA       (10s9p8d6f4g) -> [10s9p8d5f3g]

	31.000000 4
* S-type functions
    10 10
        55.38833600
        28.66100100
        11.18524400
        5.08411783
        3.53063738
        1.57362310
        .62019112
        .41612648
        .18524680
        .07891297
 1.00000000 0.0 0.0 0.0 0.0 0.0 0.0 0.0 0.0 0.0
 0.0 1.00000000 0.0 0.0 0.0 0.0 0.0 0.0 0.0 0.0
 0.0 0.0 1.00000000 0.0 0.0 0.0 0.0 0.0 0.0 0.0
 0.0 0.0 0.0 1.00000000 0.0 0.0 0.0 0.0 0.0 0.0
 0.0 0.0 0.0 0.0 1.00000000 0.0 0.0 0.0 0.0 0.0
 0.0 0.0 0.0 0.0 0.0 1.00000000 0.0 0.0 0.0 0.0
 0.0 0.0 0.0 0.0 0.0 0.0 1.00000000 0.0 0.0 0.0
 0.0 0.0 0.0 0.0 0.0 0.0 0.0 1.00000000 0.0 0.0
 0.0 0.0 0.0 0.0 0.0 0.0 0.0 0.0 1.00000000 0.0
 0.0 0.0 0.0 0.0 0.0 0.0 0.0 0.0 0.0 1.00000000
* P-type functions
    9 9
        41.35080018
        27.56720012
        6.35176283
        3.43187842
        1.72860306
        1.20212412
        .83599435
        .38869020
        .14359747
 1.00000000 0.0 0.0 0.0 0.0 0.0 0.0 0.0 0.0
 0.0 1.00000000 0.0 0.0 0.0 0.0 0.0 0.0 0.0
 0.0 0.0 1.00000000 0.0 0.0 0.0 0.0 0.0 0.0
 0.0 0.0 0.0 1.00000000 0.0 0.0 0.0 0.0 0.0
 0.0 0.0 0.0 0.0 1.00000000 0.0 0.0 0.0 0.0
 0.0 0.0 0.0 0.0 0.0 1.00000000 0.0 0.0 0.0
 0.0 0.0 0.0 0.0 0.0 0.0 1.00000000 0.0 0.0
 0.0 0.0 0.0 0.0 0.0 0.0 0.0 1.00000000 0.0
 0.0 0.0 0.0 0.0 0.0 0.0 0.0 0.0 1.00000000
* D-type functions
    8 8
        113.14225000
        31.03249200
        8.26290100
        2.55995330
        1.36491480
        .82483856
        .41745192
        .19057345
 1.00000000 0.0 0.0 0.0 0.0 0.0 0.0 0.0
 0.0 1.00000000 0.0 0.0 0.0 0.0 0.0 0.0
 0.0 0.0 1.00000000 0.0 0.0 0.0 0.0 0.0
 0.0 0.0 0.0 1.00000000 0.0 0.0 0.0 0.0
 0.0 0.0 0.0 0.0 1.00000000 0.0 0.0 0.0
 0.0 0.0 0.0 0.0 0.0 1.00000000 0.0 0.0
 0.0 0.0 0.0 0.0 0.0 0.0 1.00000000 0.0
 0.0 0.0 0.0 0.0 0.0 0.0 0.0 1.00000000
* F-type functions
    6 5
        76.08465924
        9.73887532
        2.51193572
        1.41529035
        .45130423
        .23682010
 -.40316365 0.0 0.0 0.0 0.0
 1.00245201 0.0 0.0 0.0 0.0
 0.0 1.00000000 0.0 0.0 0.0
 0.0 0.0 1.00000000 0.0 0.0
 0.0 0.0 0.0 1.00000000 0.0
 0.0 0.0 0.0 0.0 1.00000000
* G-type functions
    4 3
        18.32230794
        5.93531424
        1.70577869
        .51916968
 1.01074910 0.0 0.0
 .44760739 0.0 0.0
 0.0 1.00000000 0.0
 0.0 0.0 1.00000000

/Ge.def-TZVP..10s9p8d6f4g.10s9p8d5f3g.
 Ref.: Weigend, Häser, Patzelt, Ahlrichs, CPL 294 (1998) 143.
GE       (10s9p8d6f4g) -> [10s9p8d5f3g]

	32.000000 4
* S-type functions
    10 10
        63.52744568
        33.02360302
        12.80956632
        5.43282816
        4.37760584
        1.80385930
        .71117340
        .47811816
        .21264463
        .09074835
 1.00000000 0.0 0.0 0.0 0.0 0.0 0.0 0.0 0.0 0.0
 0.0 1.00000000 0.0 0.0 0.0 0.0 0.0 0.0 0.0 0.0
 0.0 0.0 1.00000000 0.0 0.0 0.0 0.0 0.0 0.0 0.0
 0.0 0.0 0.0 1.00000000 0.0 0.0 0.0 0.0 0.0 0.0
 0.0 0.0 0.0 0.0 1.00000000 0.0 0.0 0.0 0.0 0.0
 0.0 0.0 0.0 0.0 0.0 1.00000000 0.0 0.0 0.0 0.0
 0.0 0.0 0.0 0.0 0.0 0.0 1.00000000 0.0 0.0 0.0
 0.0 0.0 0.0 0.0 0.0 0.0 0.0 1.00000000 0.0 0.0
 0.0 0.0 0.0 0.0 0.0 0.0 0.0 0.0 1.00000000 0.0
 0.0 0.0 0.0 0.0 0.0 0.0 0.0 0.0 0.0 1.00000000
* P-type functions
    9 9
        44.31849393
        29.54566262
        6.54962741
        3.92859572
        1.95976807
        1.30651205
        .43467935
        .22498891
        .09533224
 1.00000000 0.0 0.0 0.0 0.0 0.0 0.0 0.0 0.0
 0.0 1.00000000 0.0 0.0 0.0 0.0 0.0 0.0 0.0
 0.0 0.0 1.00000000 0.0 0.0 0.0 0.0 0.0 0.0
 0.0 0.0 0.0 1.00000000 0.0 0.0 0.0 0.0 0.0
 0.0 0.0 0.0 0.0 1.00000000 0.0 0.0 0.0 0.0
 0.0 0.0 0.0 0.0 0.0 1.00000000 0.0 0.0 0.0
 0.0 0.0 0.0 0.0 0.0 0.0 1.00000000 0.0 0.0
 0.0 0.0 0.0 0.0 0.0 0.0 0.0 1.00000000 0.0
 0.0 0.0 0.0 0.0 0.0 0.0 0.0 0.0 1.00000000
* D-type functions
    8 8
        129.54241354
        35.37475754
        9.00766598
        2.92993319
        1.57131878
        .95007078
        .47607796
        .20880765
 1.00000000 0.0 0.0 0.0 0.0 0.0 0.0 0.0
 0.0 1.00000000 0.0 0.0 0.0 0.0 0.0 0.0
 0.0 0.0 1.00000000 0.0 0.0 0.0 0.0 0.0
 0.0 0.0 0.0 1.00000000 0.0 0.0 0.0 0.0
 0.0 0.0 0.0 0.0 1.00000000 0.0 0.0 0.0
 0.0 0.0 0.0 0.0 0.0 1.00000000 0.0 0.0
 0.0 0.0 0.0 0.0 0.0 0.0 1.00000000 0.0
 0.0 0.0 0.0 0.0 0.0 0.0 0.0 1.00000000
* F-type functions
    6 5
        81.51939766
        10.62837474
        2.87988043
        1.30952965
        .52866445
        .25984182
 -.41433903 0.0 0.0 0.0 0.0
 1.03220719 0.0 0.0 0.0 0.0
 0.0 1.00000000 0.0 0.0 0.0
 0.0 0.0 1.00000000 0.0 0.0
 0.0 0.0 0.0 1.00000000 0.0
 0.0 0.0 0.0 0.0 1.00000000
* G-type functions
    4 3
        20.22323040
        6.52793590
        2.09470818
        .56623179
 1.64027713 0.0 0.0
 .66603472 0.0 0.0
 0.0 1.00000000 0.0
 0.0 0.0 1.00000000

/Hf.def-TZVP..8s7p6d5f4g.8s7p6d4f3g.
 Ref.: Weigend, Häser, Patzelt, Ahlrichs, CPL 294 (1998) 143.
HF       (8s7p6d5f4g) -> [8s7p6d4f3g]

	72.000000 4
* S-type functions
    8 8
        4.73567012
        3.15711341
        2.10474227
        1.19322800
        .45913335
        .30981244
        .15845305
        .07785020
 1.00000000 0.0 0.0 0.0 0.0 0.0 0.0 0.0
 0.0 1.00000000 0.0 0.0 0.0 0.0 0.0 0.0
 0.0 0.0 1.00000000 0.0 0.0 0.0 0.0 0.0
 0.0 0.0 0.0 1.00000000 0.0 0.0 0.0 0.0
 0.0 0.0 0.0 0.0 1.00000000 0.0 0.0 0.0
 0.0 0.0 0.0 0.0 0.0 1.00000000 0.0 0.0
 0.0 0.0 0.0 0.0 0.0 0.0 1.00000000 0.0
 0.0 0.0 0.0 0.0 0.0 0.0 0.0 1.00000000
* P-type functions
    7 7
        6.92040199
        3.07095631
        2.18030481
        1.13855341
        .44049498
        .29459646
        .08072314
 1.00000000 0.0 0.0 0.0 0.0 0.0 0.0
 0.0 1.00000000 0.0 0.0 0.0 0.0 0.0
 0.0 0.0 1.00000000 0.0 0.0 0.0 0.0
 0.0 0.0 0.0 1.00000000 0.0 0.0 0.0
 0.0 0.0 0.0 0.0 1.00000000 0.0 0.0
 0.0 0.0 0.0 0.0 0.0 1.00000000 0.0
 0.0 0.0 0.0 0.0 0.0 0.0 1.00000000
* D-type functions
    6 6
        3.23629385
        2.15752924
        1.06911608
        .46494948
        .29911289
        .12016019
 1.00000000 0.0 0.0 0.0 0.0 0.0
 0.0 1.00000000 0.0 0.0 0.0 0.0
 0.0 0.0 1.00000000 0.0 0.0 0.0
 0.0 0.0 0.0 1.00000000 0.0 0.0
 0.0 0.0 0.0 0.0 1.00000000 0.0
 0.0 0.0 0.0 0.0 0.0 1.00000000
* F-type functions
    5 4
        3.86311542
        1.84449270
        .89928742
        .42694760
        .17865425
 -.53205391 0.0 0.0 0.0
 2.01243689 0.0 0.0 0.0
 0.0 1.00000000 0.0 0.0
 0.0 0.0 1.00000000 0.0
 0.0 0.0 0.0 1.00000000
* G-type functions
    4 3
        1.62632582
        1.09749712
        .39260690
        .19127355
 .67397139 0.0 0.0
 2.07211425 0.0 0.0
 0.0 1.00000000 0.0
 0.0 0.0 1.00000000

/Hg.def-TZVP..8s7p6d5f4g.8s7p6d4f3g.
 Ref.: Weigend, Häser, Patzelt, Ahlrichs, CPL 294 (1998) 143.
HG       (8s7p6d5f4g) -> [8s7p6d4f3g]

	80.000000 4
* S-type functions
    8 8
        6.17331061
        4.40950758
        3.14964827
        2.02253414
        .80097774
        .45505628
        .22474002
        .13248494
 1.00000000 0.0 0.0 0.0 0.0 0.0 0.0 0.0
 0.0 1.00000000 0.0 0.0 0.0 0.0 0.0 0.0
 0.0 0.0 1.00000000 0.0 0.0 0.0 0.0 0.0
 0.0 0.0 0.0 1.00000000 0.0 0.0 0.0 0.0
 0.0 0.0 0.0 0.0 1.00000000 0.0 0.0 0.0
 0.0 0.0 0.0 0.0 0.0 1.00000000 0.0 0.0
 0.0 0.0 0.0 0.0 0.0 0.0 1.00000000 0.0
 0.0 0.0 0.0 0.0 0.0 0.0 0.0 1.00000000
* P-type functions
    7 7
        10.00487880
        4.38694575
        3.13353268
        2.23823763
        .72772877
        .49905205
        .15153397
 1.00000000 0.0 0.0 0.0 0.0 0.0 0.0
 0.0 1.00000000 0.0 0.0 0.0 0.0 0.0
 0.0 0.0 1.00000000 0.0 0.0 0.0 0.0
 0.0 0.0 0.0 1.00000000 0.0 0.0 0.0
 0.0 0.0 0.0 0.0 1.00000000 0.0 0.0
 0.0 0.0 0.0 0.0 0.0 1.00000000 0.0
 0.0 0.0 0.0 0.0 0.0 0.0 1.00000000
* D-type functions
    6 6
        4.45519488
        3.18228205
        2.11071254
        .85754633
        .60073944
        .27565733
 1.00000000 0.0 0.0 0.0 0.0 0.0
 0.0 1.00000000 0.0 0.0 0.0 0.0
 0.0 0.0 1.00000000 0.0 0.0 0.0
 0.0 0.0 0.0 1.00000000 0.0 0.0
 0.0 0.0 0.0 0.0 1.00000000 0.0
 0.0 0.0 0.0 0.0 0.0 1.00000000
* F-type functions
    5 4
        6.70586170
        2.95542434
        1.60091912
        .77603687
        .32179113
 -.49992637 0.0 0.0 0.0
 1.90829499 0.0 0.0 0.0
 0.0 1.00000000 0.0 0.0
 0.0 0.0 1.00000000 0.0
 0.0 0.0 0.0 1.00000000
* G-type functions
    4 3
        3.57800728
        2.55571949
        1.01919827
        .47147969
 -.08433008 0.0 0.0
 1.86417537 0.0 0.0
 0.0 1.00000000 0.0
 0.0 0.0 1.00000000

/I.def-TZVP..7s5p5d4f.7s4p3d1f.
 Ref.: Weigend, Häser, Patzelt, Ahlrichs, CPL 294 (1998) 143.
I       (7s5p5d4f) -> [7s4p3d1f]

	53.000000 3
* S-type functions
    7 7
        8.90633715
        4.63724779
        2.21010533
        1.05074724
        .55289679
        .25899767
        .12570740
 1.00000000 0.0 0.0 0.0 0.0 0.0 0.0
 0.0 1.00000000 0.0 0.0 0.0 0.0 0.0
 0.0 0.0 1.00000000 0.0 0.0 0.0 0.0
 0.0 0.0 0.0 1.00000000 0.0 0.0 0.0
 0.0 0.0 0.0 0.0 1.00000000 0.0 0.0
 0.0 0.0 0.0 0.0 0.0 1.00000000 0.0
 0.0 0.0 0.0 0.0 0.0 0.0 1.00000000
* P-type functions
    5 4
        3.05680554
        1.35391609
        .66970842
        .38927481
        .25824616
 -.28138868 0.0 0.0 0.0
 1.50387250 0.0 0.0 0.0
 0.0 1.00000000 0.0 0.0
 0.0 0.0 1.00000000 0.0
 0.0 0.0 0.0 1.00000000
* D-type functions
    5 3
        2.76653515
        1.67592801
        .60871787
        .39375079
        .15138816
 .05106261 0.0 0.0
 -.22263073 0.0 0.0
 .52104487 0.0 0.0
 0.0 1.00000000 0.0
 0.0 0.0 1.00000000
* F-type functions
    4 1
        4.19012017
        1.31882608
        .66964360
        .32182906
 .05551528
 -.58793380
 1.78381858
 .65352664

/In.def-TZVP..7s5p5d4f.7s4p3d1f.
 Ref.: Weigend, Häser, Patzelt, Ahlrichs, CPL 294 (1998) 143.
IN       (7s5p5d4f) -> [7s4p3d1f]

	49.000000 3
* S-type functions
    7 7
        5.13283024
        2.07923454
        .76341686
        .44959568
        .29859330
        .12946414
        .07535852
 1.00000000 0.0 0.0 0.0 0.0 0.0 0.0
 0.0 1.00000000 0.0 0.0 0.0 0.0 0.0
 0.0 0.0 1.00000000 0.0 0.0 0.0 0.0
 0.0 0.0 0.0 1.00000000 0.0 0.0 0.0
 0.0 0.0 0.0 0.0 1.00000000 0.0 0.0
 0.0 0.0 0.0 0.0 0.0 1.00000000 0.0
 0.0 0.0 0.0 0.0 0.0 0.0 1.00000000
* P-type functions
    5 4
        1.68620522
        1.12413681
        .26421154
        .14726026
        .07884376
 -.71651872 0.0 0.0 0.0
 1.48505064 0.0 0.0 0.0
 0.0 1.00000000 0.0 0.0
 0.0 0.0 1.00000000 0.0
 0.0 0.0 0.0 1.00000000
* D-type functions
    5 3
        2.62186983
        .77997895
        .37152313
        .19708901
        .11735286
 .06219744 0.0 0.0
 -.25468773 0.0 0.0
 .51853724 0.0 0.0
 0.0 1.00000000 0.0
 0.0 0.0 1.00000000
* F-type functions
    4 1
        3.11805292
        .61044254
        .40696169
        .17889032
 -.00316596
 -.80715659
 1.81476097
 .58724175

/Ir.def-TZVP..8s7p6d5f4g.8s7p6d4f3g.
 Ref.: Weigend, Häser, Patzelt, Ahlrichs, CPL 294 (1998) 143.
IR       (8s7p6d5f4g) -> [8s7p6d4f3g]

	77.000000 4
* S-type functions
    8 8
        4.69843151
        3.34022628
        2.36189665
        1.67011314
        .73264121
        .49302272
        .24929571
        .10053552
 1.00000000 0.0 0.0 0.0 0.0 0.0 0.0 0.0
 0.0 1.00000000 0.0 0.0 0.0 0.0 0.0 0.0
 0.0 0.0 1.00000000 0.0 0.0 0.0 0.0 0.0
 0.0 0.0 0.0 1.00000000 0.0 0.0 0.0 0.0
 0.0 0.0 0.0 0.0 1.00000000 0.0 0.0 0.0
 0.0 0.0 0.0 0.0 0.0 1.00000000 0.0 0.0
 0.0 0.0 0.0 0.0 0.0 0.0 1.00000000 0.0
 0.0 0.0 0.0 0.0 0.0 0.0 0.0 1.00000000
* P-type functions
    7 7
        9.28255385
        3.88940349
        2.89037873
        1.82834272
        .66525125
        .42829495
        .12491024
 1.00000000 0.0 0.0 0.0 0.0 0.0 0.0
 0.0 1.00000000 0.0 0.0 0.0 0.0 0.0
 0.0 0.0 1.00000000 0.0 0.0 0.0 0.0
 0.0 0.0 0.0 1.00000000 0.0 0.0 0.0
 0.0 0.0 0.0 0.0 1.00000000 0.0 0.0
 0.0 0.0 0.0 0.0 0.0 1.00000000 0.0
 0.0 0.0 0.0 0.0 0.0 0.0 1.00000000
* D-type functions
    6 6
        3.99611449
        2.85436749
        1.53011210
        .69647976
        .46766858
        .23358390
 1.00000000 0.0 0.0 0.0 0.0 0.0
 0.0 1.00000000 0.0 0.0 0.0 0.0
 0.0 0.0 1.00000000 0.0 0.0 0.0
 0.0 0.0 0.0 1.00000000 0.0 0.0
 0.0 0.0 0.0 0.0 1.00000000 0.0
 0.0 0.0 0.0 0.0 0.0 1.00000000
* F-type functions
    5 4
        5.64409170
        2.52137783
        1.30318930
        .66849433
        .26130279
 -.56554424 0.0 0.0 0.0
 2.00304332 0.0 0.0 0.0
 0.0 1.00000000 0.0 0.0
 0.0 0.0 1.00000000 0.0
 0.0 0.0 0.0 1.00000000
* G-type functions
    4 3
        3.02102731
        2.24848860
        .88216038
        .38608951
 -.43014653 0.0 0.0
 1.99994945 0.0 0.0
 0.0 1.00000000 0.0
 0.0 0.0 1.00000000

/La.def-TZVP..8s7p6d5f4g.8s7p6d4f3g.
 Ref.: Weigend, Häser, Patzelt, Ahlrichs, CPL 294 (1998) 143.
LA       (8s7p6d5f4g) -> [8s7p6d4f3g]

	57.000000 4
* S-type functions
    8 8
        5.58788653
        3.20463848
        1.78989382
        1.09240158
        .46711445
        .26970701
        .10818534
        .05324463
 1.00000000 0.0 0.0 0.0 0.0 0.0 0.0 0.0
 0.0 1.00000000 0.0 0.0 0.0 0.0 0.0 0.0
 0.0 0.0 1.00000000 0.0 0.0 0.0 0.0 0.0
 0.0 0.0 0.0 1.00000000 0.0 0.0 0.0 0.0
 0.0 0.0 0.0 0.0 1.00000000 0.0 0.0 0.0
 0.0 0.0 0.0 0.0 0.0 1.00000000 0.0 0.0
 0.0 0.0 0.0 0.0 0.0 0.0 1.00000000 0.0
 0.0 0.0 0.0 0.0 0.0 0.0 0.0 1.00000000
* P-type functions
    7 7
        3.28803444
        1.64376452
        1.23360709
        .71912719
        .27798351
        .19376064
        .05772584
 1.00000000 0.0 0.0 0.0 0.0 0.0 0.0
 0.0 1.00000000 0.0 0.0 0.0 0.0 0.0
 0.0 0.0 1.00000000 0.0 0.0 0.0 0.0
 0.0 0.0 0.0 1.00000000 0.0 0.0 0.0
 0.0 0.0 0.0 0.0 1.00000000 0.0 0.0
 0.0 0.0 0.0 0.0 0.0 1.00000000 0.0
 0.0 0.0 0.0 0.0 0.0 0.0 1.00000000
* D-type functions
    6 6
        1.58556939
        1.05704626
        .64940214
        .27713217
        .19009387
        .08161744
 1.00000000 0.0 0.0 0.0 0.0 0.0
 0.0 1.00000000 0.0 0.0 0.0 0.0
 0.0 0.0 1.00000000 0.0 0.0 0.0
 0.0 0.0 0.0 1.00000000 0.0 0.0
 0.0 0.0 0.0 0.0 1.00000000 0.0
 0.0 0.0 0.0 0.0 0.0 1.00000000
* F-type functions
    5 4
        1.72588566
        1.15017617
        .58319759
        .29682770
        .09969471
 -1.09982390 0.0 0.0 0.0
 2.00002280 0.0 0.0 0.0
 0.0 1.00000000 0.0 0.0
 0.0 0.0 1.00000000 0.0
 0.0 0.0 0.0 1.00000000
* G-type functions
    4 3
        1.01919924
        .67946616
        .25335611
        .12332238
 .25230073 0.0 0.0
 2.00199761 0.0 0.0
 0.0 1.00000000 0.0
 0.0 0.0 1.00000000

/Mo.def-TZVP..8s7p6d5f4g.8s6p6d4f3g.
 Ref.: Weigend, Häser, Patzelt, Ahlrichs, CPL 294 (1998) 143.
MO       (8s7p6d5f4g) -> [8s6p6d4f3g]

	42.000000 4
* S-type functions
    8 8
        6.56351585
        4.22400470
        2.19798331
        1.09216673
        .61908262
        .36039191
        .18554526
        .09794770
 1.00000000 0.0 0.0 0.0 0.0 0.0 0.0 0.0
 0.0 1.00000000 0.0 0.0 0.0 0.0 0.0 0.0
 0.0 0.0 1.00000000 0.0 0.0 0.0 0.0 0.0
 0.0 0.0 0.0 1.00000000 0.0 0.0 0.0 0.0
 0.0 0.0 0.0 0.0 1.00000000 0.0 0.0 0.0
 0.0 0.0 0.0 0.0 0.0 1.00000000 0.0 0.0
 0.0 0.0 0.0 0.0 0.0 0.0 1.00000000 0.0
 0.0 0.0 0.0 0.0 0.0 0.0 0.0 1.00000000
* P-type functions
    7 6
        14.80951415
        3.65427018
        2.10066062
        1.39070115
        .49877762
        .22373117
        .09061219
 -.11310711 0.0 0.0 0.0 0.0 0.0
 1.50574175 0.0 0.0 0.0 0.0 0.0
 0.0 1.00000000 0.0 0.0 0.0 0.0
 0.0 0.0 1.00000000 0.0 0.0 0.0
 0.0 0.0 0.0 1.00000000 0.0 0.0
 0.0 0.0 0.0 0.0 1.00000000 0.0
 0.0 0.0 0.0 0.0 0.0 1.00000000
* D-type functions
    6 6
        4.39394788
        2.30259649
        1.43917051
        .57669780
        .34695601
        .17079850
 1.00000000 0.0 0.0 0.0 0.0 0.0
 0.0 1.00000000 0.0 0.0 0.0 0.0
 0.0 0.0 1.00000000 0.0 0.0 0.0
 0.0 0.0 0.0 1.00000000 0.0 0.0
 0.0 0.0 0.0 0.0 1.00000000 0.0
 0.0 0.0 0.0 0.0 0.0 1.00000000
* F-type functions
    5 4
        4.62232137
        2.16455746
        1.10362819
        .41052263
        .18595253
 -.28987774 0.0 0.0 0.0
 2.07777902 0.0 0.0 0.0
 0.0 1.00000000 0.0 0.0
 0.0 0.0 1.00000000 0.0
 0.0 0.0 0.0 1.00000000
* G-type functions
    4 3
        2.42392970
        1.61595313
        .56827683
        .29651515
 1.28603260 0.0 0.0
 1.79667151 0.0 0.0
 0.0 1.00000000 0.0
 0.0 0.0 1.00000000

/Nb.def-TZVP..8s7p6d5f4g.8s6p6d4f3g.
 Ref.: Weigend, Häser, Patzelt, Ahlrichs, CPL 294 (1998) 143.
NB       (8s7p6d5f4g) -> [8s6p6d4f3g]

	41.000000 4
* S-type functions
    8 8
        5.38087078
        3.51816342
        2.00715096
        1.01472531
        .54641559
        .30442014
        .15651085
        .06722711
 1.00000000 0.0 0.0 0.0 0.0 0.0 0.0 0.0
 0.0 1.00000000 0.0 0.0 0.0 0.0 0.0 0.0
 0.0 0.0 1.00000000 0.0 0.0 0.0 0.0 0.0
 0.0 0.0 0.0 1.00000000 0.0 0.0 0.0 0.0
 0.0 0.0 0.0 0.0 1.00000000 0.0 0.0 0.0
 0.0 0.0 0.0 0.0 0.0 1.00000000 0.0 0.0
 0.0 0.0 0.0 0.0 0.0 0.0 1.00000000 0.0
 0.0 0.0 0.0 0.0 0.0 0.0 0.0 1.00000000
* P-type functions
    7 6
        10.03512477
        3.80732831
        1.91798550
        1.02477462
        .49760932
        .19709641
        .07906268
 -.24796877 0.0 0.0 0.0 0.0 0.0
 1.69501010 0.0 0.0 0.0 0.0 0.0
 0.0 1.00000000 0.0 0.0 0.0 0.0
 0.0 0.0 1.00000000 0.0 0.0 0.0
 0.0 0.0 0.0 1.00000000 0.0 0.0
 0.0 0.0 0.0 0.0 1.00000000 0.0
 0.0 0.0 0.0 0.0 0.0 1.00000000
* D-type functions
    6 6
        3.87160658
        2.26307922
        1.37103394
        .54896262
        .35574965
        .15093125
 1.00000000 0.0 0.0 0.0 0.0 0.0
 0.0 1.00000000 0.0 0.0 0.0 0.0
 0.0 0.0 1.00000000 0.0 0.0 0.0
 0.0 0.0 0.0 1.00000000 0.0 0.0
 0.0 0.0 0.0 0.0 1.00000000 0.0
 0.0 0.0 0.0 0.0 0.0 1.00000000
* F-type functions
    5 4
        3.60100534
        2.07984092
        1.01316192
        .45456694
        .19546829
 -.38652222 0.0 0.0 0.0
 1.98926579 0.0 0.0 0.0
 0.0 1.00000000 0.0 0.0
 0.0 0.0 1.00000000 0.0
 0.0 0.0 0.0 1.00000000
* G-type functions
    4 3
        2.30796910
        1.68795952
        .52192892
        .29092744
 .42343111 0.0 0.0
 2.00529785 0.0 0.0
 0.0 1.00000000 0.0
 0.0 0.0 1.00000000

/Os.def-TZVP..8s7p6d5f4g.8s7p6d4f3g.
 Ref.: Weigend, Häser, Patzelt, Ahlrichs, CPL 294 (1998) 143.
OS       (8s7p6d5f4g) -> [8s7p6d4f3g]

	76.000000 4
* S-type functions
    8 8
        5.25013273
        3.75009481
        2.67863915
        1.54581364
        .68100618
        .46333914
        .23369346
        .09459368
 1.00000000 0.0 0.0 0.0 0.0 0.0 0.0 0.0
 0.0 1.00000000 0.0 0.0 0.0 0.0 0.0 0.0
 0.0 0.0 1.00000000 0.0 0.0 0.0 0.0 0.0
 0.0 0.0 0.0 1.00000000 0.0 0.0 0.0 0.0
 0.0 0.0 0.0 0.0 1.00000000 0.0 0.0 0.0
 0.0 0.0 0.0 0.0 0.0 1.00000000 0.0 0.0
 0.0 0.0 0.0 0.0 0.0 0.0 1.00000000 0.0
 0.0 0.0 0.0 0.0 0.0 0.0 0.0 1.00000000
* P-type functions
    7 7
        8.71226088
        3.73656843
        2.66897745
        1.70576604
        .61030258
        .39037555
        .12395449
 1.00000000 0.0 0.0 0.0 0.0 0.0 0.0
 0.0 1.00000000 0.0 0.0 0.0 0.0 0.0
 0.0 0.0 1.00000000 0.0 0.0 0.0 0.0
 0.0 0.0 0.0 1.00000000 0.0 0.0 0.0
 0.0 0.0 0.0 0.0 1.00000000 0.0 0.0
 0.0 0.0 0.0 0.0 0.0 1.00000000 0.0
 0.0 0.0 0.0 0.0 0.0 0.0 1.00000000
* D-type functions
    6 6
        3.80977128
        2.72126520
        1.43153495
        .65089790
        .43624615
        .21828108
 1.00000000 0.0 0.0 0.0 0.0 0.0
 0.0 1.00000000 0.0 0.0 0.0 0.0
 0.0 0.0 1.00000000 0.0 0.0 0.0
 0.0 0.0 0.0 1.00000000 0.0 0.0
 0.0 0.0 0.0 0.0 1.00000000 0.0
 0.0 0.0 0.0 0.0 0.0 1.00000000
* F-type functions
    5 4
        5.29239223
        2.38140450
        1.20611077
        .62391231
        .25036544
 -.52862528 0.0 0.0 0.0
 1.92352040 0.0 0.0 0.0
 0.0 1.00000000 0.0 0.0
 0.0 0.0 1.00000000 0.0
 0.0 0.0 0.0 1.00000000
* G-type functions
    4 3
        2.86734480
        2.04810343
        .81513851
        .35797319
 -.29996302 0.0 0.0
 2.13099728 0.0 0.0
 0.0 1.00000000 0.0
 0.0 0.0 1.00000000

/Pd.def-TZVP..8s7p6d5f4g.8s6p6d4f3g.
 Ref.: Weigend, Häser, Patzelt, Ahlrichs, CPL 294 (1998) 143.
PD       (8s7p6d5f4g) -> [8s6p6d4f3g]

	46.000000 4
* S-type functions
    8 8
        7.72742556
        5.15161701
        3.36273127
        2.08231658
        .90451080
        .43752087
        .34626107
        .12594723
 1.00000000 0.0 0.0 0.0 0.0 0.0 0.0 0.0
 0.0 1.00000000 0.0 0.0 0.0 0.0 0.0 0.0
 0.0 0.0 1.00000000 0.0 0.0 0.0 0.0 0.0
 0.0 0.0 0.0 1.00000000 0.0 0.0 0.0 0.0
 0.0 0.0 0.0 0.0 1.00000000 0.0 0.0 0.0
 0.0 0.0 0.0 0.0 0.0 1.00000000 0.0 0.0
 0.0 0.0 0.0 0.0 0.0 0.0 1.00000000 0.0
 0.0 0.0 0.0 0.0 0.0 0.0 0.0 1.00000000
* P-type functions
    7 6
        20.04139627
        4.36278824
        2.75180341
        1.71987713
        .66228229
        .41392643
        .14763599
 -.03217552 0.0 0.0 0.0 0.0 0.0
 1.16051052 0.0 0.0 0.0 0.0 0.0
 0.0 1.00000000 0.0 0.0 0.0 0.0
 0.0 0.0 1.00000000 0.0 0.0 0.0
 0.0 0.0 0.0 1.00000000 0.0 0.0
 0.0 0.0 0.0 0.0 1.00000000 0.0
 0.0 0.0 0.0 0.0 0.0 1.00000000
* D-type functions
    6 6
        5.28209391
        3.44086434
        1.85521879
        .74588989
        .42218113
        .20967330
 1.00000000 0.0 0.0 0.0 0.0 0.0
 0.0 1.00000000 0.0 0.0 0.0 0.0
 0.0 0.0 1.00000000 0.0 0.0 0.0
 0.0 0.0 0.0 1.00000000 0.0 0.0
 0.0 0.0 0.0 0.0 1.00000000 0.0
 0.0 0.0 0.0 0.0 0.0 1.00000000
* F-type functions
    5 4
        8.55234382
        2.90423709
        1.79584991
        .56879079
        .21877368
 -.25437672 0.0 0.0 0.0
 3.01129588 0.0 0.0 0.0
 0.0 1.00000000 0.0 0.0
 0.0 0.0 1.00000000 0.0
 0.0 0.0 0.0 1.00000000
* G-type functions
    4 3
        4.07144478
        2.53156689
        .87643682
        .38162445
 .90106735 0.0 0.0
 1.99000102 0.0 0.0
 0.0 1.00000000 0.0
 0.0 0.0 1.00000000

/Pt.def-TZVP..8s7p6d5f4g.8s7p6d4f3g.
 Ref.: Weigend, Häser, Patzelt, Ahlrichs, CPL 294 (1998) 143.
PT       (8s7p6d5f4g) -> [8s7p6d4f3g]

	78.000000 4
* S-type functions
    8 8
        6.45510121
        4.44347475
        2.90461450
        1.63374928
        1.11218392
        .75712543
        .44317349
        .19546220
 1.00000000 0.0 0.0 0.0 0.0 0.0 0.0 0.0
 0.0 1.00000000 0.0 0.0 0.0 0.0 0.0 0.0
 0.0 0.0 1.00000000 0.0 0.0 0.0 0.0 0.0
 0.0 0.0 0.0 1.00000000 0.0 0.0 0.0 0.0
 0.0 0.0 0.0 0.0 1.00000000 0.0 0.0 0.0
 0.0 0.0 0.0 0.0 0.0 1.00000000 0.0 0.0
 0.0 0.0 0.0 0.0 0.0 0.0 1.00000000 0.0
 0.0 0.0 0.0 0.0 0.0 0.0 0.0 1.00000000
* P-type functions
    7 7
        11.65289850
        4.16053483
        2.86117668
        1.66808382
        .69657923
        .39106885
        .13006944
 1.00000000 0.0 0.0 0.0 0.0 0.0 0.0
 0.0 1.00000000 0.0 0.0 0.0 0.0 0.0
 0.0 0.0 1.00000000 0.0 0.0 0.0 0.0
 0.0 0.0 0.0 1.00000000 0.0 0.0 0.0
 0.0 0.0 0.0 0.0 1.00000000 0.0 0.0
 0.0 0.0 0.0 0.0 0.0 1.00000000 0.0
 0.0 0.0 0.0 0.0 0.0 0.0 1.00000000
* D-type functions
    6 6
        4.17883164
        2.73042403
        1.65720479
        .70830476
        .43127904
        .21285080
 1.00000000 0.0 0.0 0.0 0.0 0.0
 0.0 1.00000000 0.0 0.0 0.0 0.0
 0.0 0.0 1.00000000 0.0 0.0 0.0
 0.0 0.0 0.0 1.00000000 0.0 0.0
 0.0 0.0 0.0 0.0 1.00000000 0.0
 0.0 0.0 0.0 0.0 0.0 1.00000000
* F-type functions
    5 4
        6.00826583
        2.58921465
        1.34006199
        .64273843
        .23159598
 -.51555646 0.0 0.0 0.0
 2.01452285 0.0 0.0 0.0
 0.0 1.00000000 0.0 0.0
 0.0 0.0 1.00000000 0.0
 0.0 0.0 0.0 1.00000000
* G-type functions
    4 3
        2.92627523
        2.00007323
        .77719957
        .32563585
 .28108567 0.0 0.0
 2.00192992 0.0 0.0
 0.0 1.00000000 0.0
 0.0 0.0 1.00000000

/Re.def-TZVP..8s7p6d5f4g.8s7p6d4f3g.
 Ref.: Weigend, Häser, Patzelt, Ahlrichs, CPL 294 (1998) 143.
RE       (8s7p6d5f4g) -> [8s7p6d4f3g]

	75.000000 4
* S-type functions
    8 8
        5.15349181
        3.68106558
        2.62933256
        1.49758230
        .61184850
        .41280433
        .21086750
        .08916710
 1.00000000 0.0 0.0 0.0 0.0 0.0 0.0 0.0
 0.0 1.00000000 0.0 0.0 0.0 0.0 0.0 0.0
 0.0 0.0 1.00000000 0.0 0.0 0.0 0.0 0.0
 0.0 0.0 0.0 1.00000000 0.0 0.0 0.0 0.0
 0.0 0.0 0.0 0.0 1.00000000 0.0 0.0 0.0
 0.0 0.0 0.0 0.0 0.0 1.00000000 0.0 0.0
 0.0 0.0 0.0 0.0 0.0 0.0 1.00000000 0.0
 0.0 0.0 0.0 0.0 0.0 0.0 0.0 1.00000000
* P-type functions
    7 7
        8.26673866
        3.66206990
        2.60276535
        1.45937796
        .52732035
        .35684719
        .10546929
 1.00000000 0.0 0.0 0.0 0.0 0.0 0.0
 0.0 1.00000000 0.0 0.0 0.0 0.0 0.0
 0.0 0.0 1.00000000 0.0 0.0 0.0 0.0
 0.0 0.0 0.0 1.00000000 0.0 0.0 0.0
 0.0 0.0 0.0 0.0 1.00000000 0.0 0.0
 0.0 0.0 0.0 0.0 0.0 1.00000000 0.0
 0.0 0.0 0.0 0.0 0.0 0.0 1.00000000
* D-type functions
    6 6
        3.62996061
        2.59282901
        1.28056232
        .60389343
        .40163273
        .18056834
 1.00000000 0.0 0.0 0.0 0.0 0.0
 0.0 1.00000000 0.0 0.0 0.0 0.0
 0.0 0.0 1.00000000 0.0 0.0 0.0
 0.0 0.0 0.0 1.00000000 0.0 0.0
 0.0 0.0 0.0 0.0 1.00000000 0.0
 0.0 0.0 0.0 0.0 0.0 1.00000000
* F-type functions
    5 4
        4.90386677
        2.20879623
        1.09419340
        .57155100
        .23936787
 -.54398801 0.0 0.0 0.0
 2.00506321 0.0 0.0 0.0
 0.0 1.00000000 0.0 0.0
 0.0 0.0 1.00000000 0.0
 0.0 0.0 0.0 1.00000000
* G-type functions
    4 3
        2.37870134
        1.77937897
        .62983452
        .30632128
 -.17646967 0.0 0.0
 2.59131930 0.0 0.0
 0.0 1.00000000 0.0
 0.0 0.0 1.00000000

/Rh.def-TZVP..8s7p6d5f4g.8s6p6d4f3g.
 Ref.: Weigend, Häser, Patzelt, Ahlrichs, CPL 294 (1998) 143.
RH       (8s7p6d5f4g) -> [8s6p6d4f3g]

	45.000000 4
* S-type functions
    8 8
        6.37252310
        5.01504590
        3.08973300
        1.39382390
        .83223381
        .36150250
        .20984765
        .08002258
 1.00000000 0.0 0.0 0.0 0.0 0.0 0.0 0.0
 0.0 1.00000000 0.0 0.0 0.0 0.0 0.0 0.0
 0.0 0.0 1.00000000 0.0 0.0 0.0 0.0 0.0
 0.0 0.0 0.0 1.00000000 0.0 0.0 0.0 0.0
 0.0 0.0 0.0 0.0 1.00000000 0.0 0.0 0.0
 0.0 0.0 0.0 0.0 0.0 1.00000000 0.0 0.0
 0.0 0.0 0.0 0.0 0.0 0.0 1.00000000 0.0
 0.0 0.0 0.0 0.0 0.0 0.0 0.0 1.00000000
* P-type functions
    7 6
        15.02139800
        4.91576110
        2.76072100
        1.42667440
        .56716832
        .26292478
        .09509489
 -.10471193 0.0 0.0 0.0 0.0 0.0
 1.00069337 0.0 0.0 0.0 0.0 0.0
 0.0 1.00000000 0.0 0.0 0.0 0.0
 0.0 0.0 1.00000000 0.0 0.0 0.0
 0.0 0.0 0.0 1.00000000 0.0 0.0
 0.0 0.0 0.0 0.0 1.00000000 0.0
 0.0 0.0 0.0 0.0 0.0 1.00000000
* D-type functions
    6 6
        5.42802310
        2.95648030
        1.85872290
        .70802944
        .47644862
        .20209670
 1.00000000 0.0 0.0 0.0 0.0 0.0
 0.0 1.00000000 0.0 0.0 0.0 0.0
 0.0 0.0 1.00000000 0.0 0.0 0.0
 0.0 0.0 0.0 1.00000000 0.0 0.0
 0.0 0.0 0.0 0.0 1.00000000 0.0
 0.0 0.0 0.0 0.0 0.0 1.00000000
* F-type functions
    5 4
        5.78016590
        2.80034870
        1.58239870
        .54459313
        .22233875
 -.23776417 0.0 0.0 0.0
 3.03477101 0.0 0.0 0.0
 0.0 1.00000000 0.0 0.0
 0.0 0.0 1.00000000 0.0
 0.0 0.0 0.0 1.00000000
* G-type functions
    4 3
        3.97373300
        2.41181310
        .82879501
        .36928020
 .59216299 0.0 0.0
 2.16960926 0.0 0.0
 0.0 1.00000000 0.0
 0.0 0.0 1.00000000

/Ru.def-TZVP..8s7p6d5f4g.8s6p6d4f3g.
 Ref.: Weigend, Häser, Patzelt, Ahlrichs, CPL 294 (1998) 143.
RU       (8s7p6d5f4g) -> [8s6p6d4f3g]

	44.000000 4
* S-type functions
    8 8
        6.73824528
        4.54754924
        2.66170992
        1.24411972
        .76938163
        .44396085
        .20772031
        .11534516
 1.00000000 0.0 0.0 0.0 0.0 0.0 0.0 0.0
 0.0 1.00000000 0.0 0.0 0.0 0.0 0.0 0.0
 0.0 0.0 1.00000000 0.0 0.0 0.0 0.0 0.0
 0.0 0.0 0.0 1.00000000 0.0 0.0 0.0 0.0
 0.0 0.0 0.0 0.0 1.00000000 0.0 0.0 0.0
 0.0 0.0 0.0 0.0 0.0 1.00000000 0.0 0.0
 0.0 0.0 0.0 0.0 0.0 0.0 1.00000000 0.0
 0.0 0.0 0.0 0.0 0.0 0.0 0.0 1.00000000
* P-type functions
    7 6
        18.20252557
        4.10296161
        2.28234918
        1.61802341
        .51520643
        .26654209
        .09737384
 -.05954205 0.0 0.0 0.0 0.0 0.0
 1.00634071 0.0 0.0 0.0 0.0 0.0
 0.0 1.00000000 0.0 0.0 0.0 0.0
 0.0 0.0 1.00000000 0.0 0.0 0.0
 0.0 0.0 0.0 1.00000000 0.0 0.0
 0.0 0.0 0.0 0.0 1.00000000 0.0
 0.0 0.0 0.0 0.0 0.0 1.00000000
* D-type functions
    6 6
        4.65668350
        2.87004977
        1.57383936
        .68926577
        .41788313
        .21307274
 1.00000000 0.0 0.0 0.0 0.0 0.0
 0.0 1.00000000 0.0 0.0 0.0 0.0
 0.0 0.0 1.00000000 0.0 0.0 0.0
 0.0 0.0 0.0 1.00000000 0.0 0.0
 0.0 0.0 0.0 0.0 1.00000000 0.0
 0.0 0.0 0.0 0.0 0.0 1.00000000
* F-type functions
    5 4
        5.71758789
        2.60643643
        1.42775912
        .50232302
        .20872552
 -.27395831 0.0 0.0 0.0
 1.95068780 0.0 0.0 0.0
 0.0 1.00000000 0.0 0.0
 0.0 0.0 1.00000000 0.0
 0.0 0.0 0.0 1.00000000
* G-type functions
    4 3
        3.07134020
        2.10234176
        .78133126
        .36254645
 .86612754 0.0 0.0
 1.79199238 0.0 0.0
 0.0 1.00000000 0.0
 0.0 0.0 1.00000000

/Sb.def-TZVP..7s5p5d4f.7s4p3d1f.
 Ref.: Weigend, Häser, Patzelt, Ahlrichs, CPL 294 (1998) 143.
SB       (7s5p5d4f) -> [7s4p3d1f]

	51.000000 3
* S-type functions
    7 7
        7.15053485
        3.05305356
        1.13345145
        .69684774
        .49453913
        .23273277
        .11527208
 1.00000000 0.0 0.0 0.0 0.0 0.0 0.0
 0.0 1.00000000 0.0 0.0 0.0 0.0 0.0
 0.0 0.0 1.00000000 0.0 0.0 0.0 0.0
 0.0 0.0 0.0 1.00000000 0.0 0.0 0.0
 0.0 0.0 0.0 0.0 1.00000000 0.0 0.0
 0.0 0.0 0.0 0.0 0.0 1.00000000 0.0
 0.0 0.0 0.0 0.0 0.0 0.0 1.00000000
* P-type functions
    5 4
        1.93079405
        1.19910329
        .49720135
        .26943900
        .19245643
 -.52205868 0.0 0.0 0.0
 1.49755054 0.0 0.0 0.0
 0.0 1.00000000 0.0 0.0
 0.0 0.0 1.00000000 0.0
 0.0 0.0 0.0 1.00000000
* D-type functions
    5 3
        3.69253513
        1.05359337
        .56336750
        .28691756
        .14699164
 .00813685 0.0 0.0
 -.38088005 0.0 0.0
 .58506888 0.0 0.0
 0.0 1.00000000 0.0
 0.0 0.0 1.00000000
* F-type functions
    4 1
        2.72922986
        .80995272
        .54774511
        .26865604
 .00476911
 -.97506397
 2.10086862
 .80316665

/Se.def-TZVP..10s9p8d6f4g.10s9p8d5f3g.
 Ref.: Weigend, Häser, Patzelt, Ahlrichs, CPL 294 (1998) 143.
SE       (10s9p8d6f4g) -> [10s9p8d5f3g]

	34.000000 4
* S-type functions
    10 10
        88.95366100
        39.13617000
        16.88057100
        6.76203200
        4.79770010
        2.07797730
        .57258705
        .36861789
        .19814574
        .10449039
 1.00000000 0.0 0.0 0.0 0.0 0.0 0.0 0.0 0.0 0.0
 0.0 1.00000000 0.0 0.0 0.0 0.0 0.0 0.0 0.0 0.0
 0.0 0.0 1.00000000 0.0 0.0 0.0 0.0 0.0 0.0 0.0
 0.0 0.0 0.0 1.00000000 0.0 0.0 0.0 0.0 0.0 0.0
 0.0 0.0 0.0 0.0 1.00000000 0.0 0.0 0.0 0.0 0.0
 0.0 0.0 0.0 0.0 0.0 1.00000000 0.0 0.0 0.0 0.0
 0.0 0.0 0.0 0.0 0.0 0.0 1.00000000 0.0 0.0 0.0
 0.0 0.0 0.0 0.0 0.0 0.0 0.0 1.00000000 0.0 0.0
 0.0 0.0 0.0 0.0 0.0 0.0 0.0 0.0 1.00000000 0.0
 0.0 0.0 0.0 0.0 0.0 0.0 0.0 0.0 0.0 1.00000000
* P-type functions
    9 9
        52.36678900
        31.90920200
        8.43609190
        3.83263960
        1.70513080
        1.00255520
        .52296061
        .27160705
        .09595807
 1.00000000 0.0 0.0 0.0 0.0 0.0 0.0 0.0 0.0
 0.0 1.00000000 0.0 0.0 0.0 0.0 0.0 0.0 0.0
 0.0 0.0 1.00000000 0.0 0.0 0.0 0.0 0.0 0.0
 0.0 0.0 0.0 1.00000000 0.0 0.0 0.0 0.0 0.0
 0.0 0.0 0.0 0.0 1.00000000 0.0 0.0 0.0 0.0
 0.0 0.0 0.0 0.0 0.0 1.00000000 0.0 0.0 0.0
 0.0 0.0 0.0 0.0 0.0 0.0 1.00000000 0.0 0.0
 0.0 0.0 0.0 0.0 0.0 0.0 0.0 1.00000000 0.0
 0.0 0.0 0.0 0.0 0.0 0.0 0.0 0.0 1.00000000
* D-type functions
    8 8
        111.37879000
        41.34288900
        10.08701900
        3.46986870
        1.33963180
        .76154142
        .49294005
        .20587338
 1.00000000 0.0 0.0 0.0 0.0 0.0 0.0 0.0
 0.0 1.00000000 0.0 0.0 0.0 0.0 0.0 0.0
 0.0 0.0 1.00000000 0.0 0.0 0.0 0.0 0.0
 0.0 0.0 0.0 1.00000000 0.0 0.0 0.0 0.0
 0.0 0.0 0.0 0.0 1.00000000 0.0 0.0 0.0
 0.0 0.0 0.0 0.0 0.0 1.00000000 0.0 0.0
 0.0 0.0 0.0 0.0 0.0 0.0 1.00000000 0.0
 0.0 0.0 0.0 0.0 0.0 0.0 0.0 1.00000000
* F-type functions
    6 5
        98.67863700
        12.08261000
        2.73267160
        1.49264610
        .71106020
        .33015467
 -.40633906 0.0 0.0 0.0 0.0
 1.00454950 0.0 0.0 0.0 0.0
 0.0 1.00000000 0.0 0.0 0.0
 0.0 0.0 1.00000000 0.0 0.0
 0.0 0.0 0.0 1.00000000 0.0
 0.0 0.0 0.0 0.0 1.00000000
* G-type functions
    4 3
        24.83552800
        8.05276810
        2.95981490
        .76283655
 1.32344275 0.0 0.0
 .50893400 0.0 0.0
 0.0 1.00000000 0.0
 0.0 0.0 1.00000000

/Sn.def-TZVP..7s5p5d4f.7s4p3d1f.
 Ref.: Weigend, Häser, Patzelt, Ahlrichs, CPL 294 (1998) 143.
SN       (7s5p5d4f) -> [7s4p3d1f]

	50.000000 3
* S-type functions
    7 7
        6.21461221
        2.65551106
        .97117503
        .57449973
        .39310885
        .18304671
        .09311111
 1.00000000 0.0 0.0 0.0 0.0 0.0 0.0
 0.0 1.00000000 0.0 0.0 0.0 0.0 0.0
 0.0 0.0 1.00000000 0.0 0.0 0.0 0.0
 0.0 0.0 0.0 1.00000000 0.0 0.0 0.0
 0.0 0.0 0.0 0.0 1.00000000 0.0 0.0
 0.0 0.0 0.0 0.0 0.0 1.00000000 0.0
 0.0 0.0 0.0 0.0 0.0 0.0 1.00000000
* P-type functions
    5 4
        1.65179261
        1.08587221
        .43772738
        .22673733
        .16195524
 -.57303390 0.0 0.0 0.0
 1.49966960 0.0 0.0 0.0
 0.0 1.00000000 0.0 0.0
 0.0 0.0 1.00000000 0.0
 0.0 0.0 0.0 1.00000000
* D-type functions
    5 3
        3.18854811
        .95756454
        .45246463
        .24559439
        .11524100
 -.05221262 0.0 0.0
 -.28179162 0.0 0.0
 .60661145 0.0 0.0
 0.0 1.00000000 0.0
 0.0 0.0 1.00000000
* F-type functions
    4 1
        2.44562647
        .69011027
        .44272139
        .22224664
 -.00258774
 -.65262128
 1.79958883
 .67724502

/Ta.def-TZVP..8s7p6d5f4g.8s7p6d4f3g.
 Ref.: Weigend, Häser, Patzelt, Ahlrichs, CPL 294 (1998) 143.
TA       (8s7p6d5f4g) -> [8s7p6d4f3g]

	73.000000 4
* S-type functions
    8 8
        4.81905336
        3.25272595
        2.24091865
        1.24701590
        .51804238
        .33578050
        .17142640
        .08535356
 1.00000000 0.0 0.0 0.0 0.0 0.0 0.0 0.0
 0.0 1.00000000 0.0 0.0 0.0 0.0 0.0 0.0
 0.0 0.0 1.00000000 0.0 0.0 0.0 0.0 0.0
 0.0 0.0 0.0 1.00000000 0.0 0.0 0.0 0.0
 0.0 0.0 0.0 0.0 1.00000000 0.0 0.0 0.0
 0.0 0.0 0.0 0.0 0.0 1.00000000 0.0 0.0
 0.0 0.0 0.0 0.0 0.0 0.0 1.00000000 0.0
 0.0 0.0 0.0 0.0 0.0 0.0 0.0 1.00000000
* P-type functions
    7 7
        7.78554562
        3.60225041
        2.35810832
        1.15468663
        .50428873
        .30431796
        .09502947
 1.00000000 0.0 0.0 0.0 0.0 0.0 0.0
 0.0 1.00000000 0.0 0.0 0.0 0.0 0.0
 0.0 0.0 1.00000000 0.0 0.0 0.0 0.0
 0.0 0.0 0.0 1.00000000 0.0 0.0 0.0
 0.0 0.0 0.0 0.0 1.00000000 0.0 0.0
 0.0 0.0 0.0 0.0 0.0 1.00000000 0.0
 0.0 0.0 0.0 0.0 0.0 0.0 1.00000000
* D-type functions
    6 6
        3.41732720
        2.27821813
        1.14022964
        .52325376
        .33782773
        .14008630
 1.00000000 0.0 0.0 0.0 0.0 0.0
 0.0 1.00000000 0.0 0.0 0.0 0.0
 0.0 0.0 1.00000000 0.0 0.0 0.0
 0.0 0.0 0.0 1.00000000 0.0 0.0
 0.0 0.0 0.0 0.0 1.00000000 0.0
 0.0 0.0 0.0 0.0 0.0 1.00000000
* F-type functions
    5 4
        4.36392347
        1.91039815
        .92982929
        .46972345
        .18161266
 -.48653421 0.0 0.0 0.0
 2.12459730 0.0 0.0 0.0
 0.0 1.00000000 0.0 0.0
 0.0 0.0 1.00000000 0.0
 0.0 0.0 0.0 1.00000000
* G-type functions
    4 3
        1.65761894
        1.03001252
        .43930092
        .22436247
 1.54594443 0.0 0.0
 1.88846289 0.0 0.0
 0.0 1.00000000 0.0
 0.0 0.0 1.00000000

/Tc.def-TZVP..8s7p6d5f4g.8s6p6d4f3g.
 Ref.: Weigend, Häser, Patzelt, Ahlrichs, CPL 294 (1998) 143.
TC       (8s7p6d5f4g) -> [8s6p6d4f3g]

	43.000000 4
* S-type functions
    8 8
        6.32282338
        4.24056852
        2.36103504
        1.12515165
        .63443677
        .37416675
        .16915237
        .07820760
 1.00000000 0.0 0.0 0.0 0.0 0.0 0.0 0.0
 0.0 1.00000000 0.0 0.0 0.0 0.0 0.0 0.0
 0.0 0.0 1.00000000 0.0 0.0 0.0 0.0 0.0
 0.0 0.0 0.0 1.00000000 0.0 0.0 0.0 0.0
 0.0 0.0 0.0 0.0 1.00000000 0.0 0.0 0.0
 0.0 0.0 0.0 0.0 0.0 1.00000000 0.0 0.0
 0.0 0.0 0.0 0.0 0.0 0.0 1.00000000 0.0
 0.0 0.0 0.0 0.0 0.0 0.0 0.0 1.00000000
* P-type functions
    7 6
        15.54264047
        3.86947014
        2.16401573
        1.45480622
        .49440140
        .23589999
        .08843683
 -.09719513 0.0 0.0 0.0 0.0 0.0
 1.50006122 0.0 0.0 0.0 0.0 0.0
 0.0 1.00000000 0.0 0.0 0.0 0.0
 0.0 0.0 1.00000000 0.0 0.0 0.0
 0.0 0.0 0.0 1.00000000 0.0 0.0
 0.0 0.0 0.0 0.0 1.00000000 0.0
 0.0 0.0 0.0 0.0 0.0 1.00000000
* D-type functions
    6 6
        4.44829084
        2.58753618
        1.55641147
        .66162152
        .42872470
        .19691102
 1.00000000 0.0 0.0 0.0 0.0 0.0
 0.0 1.00000000 0.0 0.0 0.0 0.0
 0.0 0.0 1.00000000 0.0 0.0 0.0
 0.0 0.0 0.0 1.00000000 0.0 0.0
 0.0 0.0 0.0 0.0 1.00000000 0.0
 0.0 0.0 0.0 0.0 0.0 1.00000000
* F-type functions
    5 4
        4.94449802
        2.45311768
        1.28575955
        .51852614
        .22595151
 -.32169369 0.0 0.0 0.0
 1.90451252 0.0 0.0 0.0
 0.0 1.00000000 0.0 0.0
 0.0 0.0 1.00000000 0.0
 0.0 0.0 0.0 1.00000000
* G-type functions
    4 3
        3.01769612
        2.01179740
        .66523752
        .36621154
 .56890254 0.0 0.0
 2.01534324 0.0 0.0
 0.0 1.00000000 0.0
 0.0 0.0 1.00000000

/Te.def-TZVP..7s5p5d4f.7s4p3d1f.
 Ref.: Weigend, Häser, Patzelt, Ahlrichs, CPL 294 (1998) 143.
TE       (7s5p5d4f) -> [7s4p3d1f]

	52.000000 3
* S-type functions
    7 7
        7.66949734
        3.98169427
        1.91294561
        .93512959
        .52173867
        .25549150
        .11649911
 1.00000000 0.0 0.0 0.0 0.0 0.0 0.0
 0.0 1.00000000 0.0 0.0 0.0 0.0 0.0
 0.0 0.0 1.00000000 0.0 0.0 0.0 0.0
 0.0 0.0 0.0 1.00000000 0.0 0.0 0.0
 0.0 0.0 0.0 0.0 1.00000000 0.0 0.0
 0.0 0.0 0.0 0.0 0.0 1.00000000 0.0
 0.0 0.0 0.0 0.0 0.0 0.0 1.00000000
* P-type functions
    5 4
        2.55969359
        1.25120571
        .62869927
        .33030840
        .22784263
 -.36854564 0.0 0.0 0.0
 1.50083012 0.0 0.0 0.0
 0.0 1.00000000 0.0 0.0
 0.0 0.0 1.00000000 0.0
 0.0 0.0 0.0 1.00000000
* D-type functions
    5 3
        2.39628956
        1.46676341
        .58928206
        .34539588
        .15117481
 .16773663 0.0 0.0
 -.42917418 0.0 0.0
 .59577170 0.0 0.0
 0.0 1.00000000 0.0
 0.0 0.0 1.00000000
* F-type functions
    4 1
        3.62561785
        1.14885474
        .57401868
        .28805832
 .03331116
 -.68851635
 2.21006849
 .81566043

/W.def-TZVP..8s7p6d5f4g.8s7p6d4f3g.
 Ref.: Weigend, Häser, Patzelt, Ahlrichs, CPL 294 (1998) 143.
W       (8s7p6d5f4g) -> [8s7p6d4f3g]

	74.000000 4
* S-type functions
    8 8
        5.51664127
        3.94011159
        2.81411797
        1.52167375
        .65364215
        .37813253
        .18973800
        .09444807
 1.00000000 0.0 0.0 0.0 0.0 0.0 0.0 0.0
 0.0 1.00000000 0.0 0.0 0.0 0.0 0.0 0.0
 0.0 0.0 1.00000000 0.0 0.0 0.0 0.0 0.0
 0.0 0.0 0.0 1.00000000 0.0 0.0 0.0 0.0
 0.0 0.0 0.0 0.0 1.00000000 0.0 0.0 0.0
 0.0 0.0 0.0 0.0 0.0 1.00000000 0.0 0.0
 0.0 0.0 0.0 0.0 0.0 0.0 1.00000000 0.0
 0.0 0.0 0.0 0.0 0.0 0.0 0.0 1.00000000
* P-type functions
    7 7
        7.68929287
        3.53266480
        2.48801634
        1.32958480
        .49219975
        .33922479
        .09590013
 1.00000000 0.0 0.0 0.0 0.0 0.0 0.0
 0.0 1.00000000 0.0 0.0 0.0 0.0 0.0
 0.0 0.0 1.00000000 0.0 0.0 0.0 0.0
 0.0 0.0 0.0 1.00000000 0.0 0.0 0.0
 0.0 0.0 0.0 0.0 1.00000000 0.0 0.0
 0.0 0.0 0.0 0.0 0.0 1.00000000 0.0
 0.0 0.0 0.0 0.0 0.0 0.0 1.00000000
* D-type functions
    6 6
        3.57077683
        2.38051788
        1.16489883
        .54933159
        .36598522
        .15968655
 1.00000000 0.0 0.0 0.0 0.0 0.0
 0.0 1.00000000 0.0 0.0 0.0 0.0
 0.0 0.0 1.00000000 0.0 0.0 0.0
 0.0 0.0 0.0 1.00000000 0.0 0.0
 0.0 0.0 0.0 0.0 1.00000000 0.0
 0.0 0.0 0.0 0.0 0.0 1.00000000
* F-type functions
    5 4
        4.50563815
        2.05649740
        .99600077
        .50606045
        .19737198
 -.52098284 0.0 0.0 0.0
 2.00512788 0.0 0.0 0.0
 0.0 1.00000000 0.0 0.0
 0.0 0.0 1.00000000 0.0
 0.0 0.0 0.0 1.00000000
* G-type functions
    4 3
        2.08808721
        1.53049293
        .53284118
        .26165201
 .30175949 0.0 0.0
 1.97712556 0.0 0.0
 0.0 1.00000000 0.0
 0.0 0.0 1.00000000

/Y.def-TZVP..8s7p6d5f4g.8s6p6d4f3g.
 Ref.: Weigend, Häser, Patzelt, Ahlrichs, CPL 294 (1998) 143.
Y       (8s7p6d5f4g) -> [8s6p6d4f3g]

	39.000000 4
* S-type functions
    8 8
        4.63883870
        2.93459575
        1.68033692
        .86240434
        .43618275
        .22137422
        .11367670
        .05986447
 1.00000000 0.0 0.0 0.0 0.0 0.0 0.0 0.0
 0.0 1.00000000 0.0 0.0 0.0 0.0 0.0 0.0
 0.0 0.0 1.00000000 0.0 0.0 0.0 0.0 0.0
 0.0 0.0 0.0 1.00000000 0.0 0.0 0.0 0.0
 0.0 0.0 0.0 0.0 1.00000000 0.0 0.0 0.0
 0.0 0.0 0.0 0.0 0.0 1.00000000 0.0 0.0
 0.0 0.0 0.0 0.0 0.0 0.0 1.00000000 0.0
 0.0 0.0 0.0 0.0 0.0 0.0 0.0 1.00000000
* P-type functions
    7 6
        10.71856324
        3.35980841
        1.51613993
        .94758745
        .40223847
        .21860382
        .06823329
 -.22075668 0.0 0.0 0.0 0.0 0.0
 1.51273747 0.0 0.0 0.0 0.0 0.0
 0.0 1.00000000 0.0 0.0 0.0 0.0
 0.0 0.0 1.00000000 0.0 0.0 0.0
 0.0 0.0 0.0 1.00000000 0.0 0.0
 0.0 0.0 0.0 0.0 1.00000000 0.0
 0.0 0.0 0.0 0.0 0.0 1.00000000
* D-type functions
    6 6
        3.99512689
        1.96716829
        1.22948018
        .50734148
        .22880629
        .10270030
 1.00000000 0.0 0.0 0.0 0.0 0.0
 0.0 1.00000000 0.0 0.0 0.0 0.0
 0.0 0.0 1.00000000 0.0 0.0 0.0
 0.0 0.0 0.0 1.00000000 0.0 0.0
 0.0 0.0 0.0 0.0 1.00000000 0.0
 0.0 0.0 0.0 0.0 0.0 1.00000000
* F-type functions
    5 4
        3.25911110
        1.70436920
        .83010385
        .40246053
        .13712259
 -.56893822 0.0 0.0 0.0
 2.93178530 0.0 0.0 0.0
 0.0 1.00000000 0.0 0.0
 0.0 0.0 1.00000000 0.0
 0.0 0.0 0.0 1.00000000
* G-type functions
    4 3
        3.17998660
        1.54729490
        .39733882
        .17436320
 -.51800081 0.0 0.0
 2.13196900 0.0 0.0
 0.0 1.00000000 0.0
 0.0 0.0 1.00000000

/Zr.def-TZVP..8s7p6d5f4g.8s6p6d4f3g.
 Ref.: Weigend, Häser, Patzelt, Ahlrichs, CPL 294 (1998) 143.
ZR       (8s7p6d5f4g) -> [8s6p6d4f3g]

	40.000000 4
* S-type functions
    8 8
        4.87030697
        3.21801570
        1.90467263
        .95157455
        .49655406
        .27323102
        .13783106
        .06615808
 1.00000000 0.0 0.0 0.0 0.0 0.0 0.0 0.0
 0.0 1.00000000 0.0 0.0 0.0 0.0 0.0 0.0
 0.0 0.0 1.00000000 0.0 0.0 0.0 0.0 0.0
 0.0 0.0 0.0 1.00000000 0.0 0.0 0.0 0.0
 0.0 0.0 0.0 0.0 1.00000000 0.0 0.0 0.0
 0.0 0.0 0.0 0.0 0.0 1.00000000 0.0 0.0
 0.0 0.0 0.0 0.0 0.0 0.0 1.00000000 0.0
 0.0 0.0 0.0 0.0 0.0 0.0 0.0 1.00000000
* P-type functions
    7 6
        9.83777516
        3.39435093
        1.79348780
        1.00108253
        .44941376
        .20617528
        .07072092
 -.18292710 0.0 0.0 0.0 0.0 0.0
 1.50415513 0.0 0.0 0.0 0.0 0.0
 0.0 1.00000000 0.0 0.0 0.0 0.0
 0.0 0.0 1.00000000 0.0 0.0 0.0
 0.0 0.0 0.0 1.00000000 0.0 0.0
 0.0 0.0 0.0 0.0 1.00000000 0.0
 0.0 0.0 0.0 0.0 0.0 1.00000000
* D-type functions
    6 6
        3.61235144
        1.99944488
        1.28364815
        .51471641
        .30006516
        .12872953
 1.00000000 0.0 0.0 0.0 0.0 0.0
 0.0 1.00000000 0.0 0.0 0.0 0.0
 0.0 0.0 1.00000000 0.0 0.0 0.0
 0.0 0.0 0.0 1.00000000 0.0 0.0
 0.0 0.0 0.0 0.0 1.00000000 0.0
 0.0 0.0 0.0 0.0 0.0 1.00000000
* F-type functions
    5 4
        3.39604197
        2.01699671
        1.01891217
        .52035851
        .28412099
 -.72001267 0.0 0.0 0.0
 3.00001094 0.0 0.0 0.0
 0.0 1.00000000 0.0 0.0
 0.0 0.0 1.00000000 0.0
 0.0 0.0 0.0 1.00000000
* G-type functions
    4 3
        2.74257871
        1.62914470
        .42975418
        .22804031
 .23788646 0.0 0.0
 2.04596905 0.0 0.0
 0.0 1.00000000 0.0
 0.0 0.0 1.00000000

