************************************************************************
* This file is part of OpenMolcas.                                     *
*                                                                      *
* OpenMolcas is free software; you can redistribute it and/or modify   *
* it under the terms of the GNU Lesser General Public License, v. 2.1. *
* OpenMolcas is distributed in the hope that it will be useful, but it *
* is provided "as is" and without any express or implied warranties.   *
* For more details see the full text of the license in the file        *
* LICENSE or in <http://www.gnu.org/licenses/>.                        *
************************************************************************
/Al.TZVP..10s7p7d3f.9s7p6d2f.
 Ref.: Weigend, Häser, Patzelt, Ahlrichs, CPL 294 (1998) 143.
AL       (10s7p7d3f) -> [9s7p6d2f]

	13.000000 3
* S-type functions
    10 9
        300.70420000
        104.82771000
        40.61713600
        16.22645300
        6.81052490
        3.10160330
        1.29231030
        .60814018
        .26726985
        .14466385
 1.18256078 0.0 0.0 0.0 0.0 0.0 0.0 0.0 0.0
 .75032101 0.0 0.0 0.0 0.0 0.0 0.0 0.0 0.0
 0.0 .78924033 0.0 0.0 0.0 0.0 0.0 0.0 0.0
 0.0 0.0 1.00000000 0.0 0.0 0.0 0.0 0.0 0.0
 0.0 0.0 0.0 1.00000000 0.0 0.0 0.0 0.0 0.0
 0.0 0.0 0.0 0.0 1.00000000 0.0 0.0 0.0 0.0
 0.0 0.0 0.0 0.0 0.0 1.00000000 0.0 0.0 0.0
 0.0 0.0 0.0 0.0 0.0 0.0 1.00000000 0.0 0.0
 0.0 0.0 0.0 0.0 0.0 0.0 0.0 1.00000000 0.0
 0.0 0.0 0.0 0.0 0.0 0.0 0.0 0.0 1.00000000
* P-type functions
    7 7
        77.97510800
        9.55563635
        5.62096256
        2.19926770
        .85134663
        .34984438
        .16734354
 -.82198532 0.0 0.0 0.0 0.0 0.0 0.0
 0.0 .83563139 0.0 0.0 0.0 0.0 0.0
 0.0 0.0 1.80463505 0.0 0.0 0.0 0.0
 0.0 0.0 0.0 1.00000000 0.0 0.0 0.0
 0.0 0.0 0.0 0.0 1.00000000 0.0 0.0
 0.0 0.0 0.0 0.0 0.0 1.00000000 0.0
 0.0 0.0 0.0 0.0 0.0 0.0 1.00000000
* D-type functions
    7 6
        35.79413300
        12.01432900
        4.40139680
        2.10813750
        .96561981
        .44612743
        .19549324
 .86201923 0.0 0.0 0.0 0.0 0.0
 1.40646258 0.0 0.0 0.0 0.0 0.0
 0.0 .59250754 0.0 0.0 0.0 0.0
 0.0 0.0 1.00000000 0.0 0.0 0.0
 0.0 0.0 0.0 1.00000000 0.0 0.0
 0.0 0.0 0.0 0.0 1.00000000 0.0
 0.0 0.0 0.0 0.0 0.0 1.00000000
* F-type functions
    3 2
        1.93789568
        .37925249
        .24982981
 1.46346068 0.0
 0.0 .25942180
 0.0 -.08455754

/Ar.TZVP..10s7p7d3f.9s7p6d2f.
Reference none
AR       (10s7p7d3f) -> [9s7p6d2f]

	18.000000 3
* S-type functions
    10 9
        581.184
        165.101
        60.0502
        15.2676
        7.87286
        4.81212
        2.51481
        1.43151
        0.683774
        0.286715
 -1.01628 0.0 0.0 0.0 0.0 0.0 0.0 0.0 0.0
 3.18488 0.0 0.0 0.0 0.0 0.0 0.0 0.0 0.0
 0.0 1.00000 0.0 0.0 0.0 0.0 0.0 0.0 0.0
 0.0 0.0 1.00000 0.0 0.0 0.0 0.0 0.0 0.0
 0.0 0.0 0.0 1.00000 0.0 0.0 0.0 0.0 0.0
 0.0 0.0 0.0 0.0 1.00000 0.0 0.0 0.0 0.0
 0.0 0.0 0.0 0.0 0.0 1.00000 0.0 0.0 0.0
 0.0 0.0 0.0 0.0 0.0 0.0 1.00000 0.0 0.0
 0.0 0.0 0.0 0.0 0.0 0.0 0.0 1.00000 0.0
 0.0 0.0 0.0 0.0 0.0 0.0 0.0 0.0 1.00000
* P-type functions
    7 7
        95.7281
        23.7126
        9.50489
        3.87991
        2.08975
        1.12555
        0.558344
 1.00000 0.0 0.0 0.0 0.0 0.0 0.0
 0.0 1.00000 0.0 0.0 0.0 0.0 0.0
 0.0 0.0 1.00000 0.0 0.0 0.0 0.0
 0.0 0.0 0.0 1.00000 0.0 0.0 0.0
 0.0 0.0 0.0 0.0 1.00000 0.0 0.0
 0.0 0.0 0.0 0.0 0.0 1.00000 0.0
 0.0 0.0 0.0 0.0 0.0 0.0 1.00000
* D-type functions
    7 6
        82.5392
        26.2760
        9.40744
        3.91259
        1.62726
        0.949905
        0.347932
 1.09088 0.0 0.0 0.0 0.0 0.0
 2.11882 0.0 0.0 0.0 0.0 0.0
 0.0 1.00000 0.0 0.0 0.0 0.0
 0.0 0.0 1.00000 0.0 0.0 0.0
 0.0 0.0 0.0 1.00000 0.0 0.0
 0.0 0.0 0.0 0.0 1.00000 0.0
 0.0 0.0 0.0 0.0 0.0 1.00000
* F-type functions
    3 2
        6.02016
        1.78948
        0.790978
 1.00000 0.0
 0.0 1.00000
 0.0 0.558162

/B.TZVP..8s6p5d3f.7s6p4d1f.
 Ref.: Weigend, Häser, Patzelt, Ahlrichs, CPL 294 (1998) 143.
B       (8s6p5d3f) -> [7s6p4d1f]

	5.000000 3
* S-type functions
    8 7
        146.41098372
        31.84652451
        12.98314672
        5.48098028
        1.96749781
        .68668946
        .24674611
        .14934320
 .75852308 0.0 0.0 0.0 0.0 0.0 0.0
 1.61698852 0.0 0.0 0.0 0.0 0.0 0.0
 0.0 .52609360 0.0 0.0 0.0 0.0 0.0
 0.0 0.0 1.00000000 0.0 0.0 0.0 0.0
 0.0 0.0 0.0 1.00000000 0.0 0.0 0.0
 0.0 0.0 0.0 0.0 1.00000000 0.0 0.0
 0.0 0.0 0.0 0.0 0.0 1.00000000 0.0
 0.0 0.0 0.0 0.0 0.0 0.0 1.00000000
* P-type functions
    6 6
        16.14221491
        4.19045214
        1.78158518
        .71351509
        .32237849
        .15324320
 1.11913551 0.0 0.0 0.0 0.0 0.0
 0.0 1.15216884 0.0 0.0 0.0 0.0
 0.0 0.0 1.00000000 0.0 0.0 0.0
 0.0 0.0 0.0 1.00000000 0.0 0.0
 0.0 0.0 0.0 0.0 1.00000000 0.0
 0.0 0.0 0.0 0.0 0.0 1.00000000
* D-type functions
    5 4
        6.52130491
        2.31591148
        .86363911
        .37498583
        .14209836
 .20543871 0.0 0.0 0.0
 1.42659072 0.0 0.0 0.0
 0.0 1.00000000 0.0 0.0
 0.0 0.0 1.00000000 0.0
 0.0 0.0 0.0 1.00000000
* F-type functions
    3 1
        2.21866183
        .74288816
        .39772732
 .81087004
 1.75975495
 .33568155

/Be.TZVP..9s5p3d.8s4p2d.
 Ref.: Weigend, Häser, Patzelt, Ahlrichs, CPL 294 (1998) 143.
BE       (9s5p3d) -> [8s4p2d]

	4.000000 2
* S-type functions
    9 8
        86.81101212
        17.98174975
        7.76958894
        2.77177455
        1.14846369
        .39330203
        .23135414
        .09682460
        .05658797
 1.18820240 0.0 0.0 0.0 0.0 0.0 0.0 0.0
 1.71284790 0.0 0.0 0.0 0.0 0.0 0.0 0.0
 0.0 1.07129590 0.0 0.0 0.0 0.0 0.0 0.0
 0.0 0.0 -.21982450 0.0 0.0 0.0 0.0 0.0
 0.0 0.0 0.0 -.58936217 0.0 0.0 0.0 0.0
 0.0 0.0 0.0 0.0 1.00000000 0.0 0.0 0.0
 0.0 0.0 0.0 0.0 0.0 1.00000000 0.0 0.0
 0.0 0.0 0.0 0.0 0.0 0.0 1.00000000 0.0
 0.0 0.0 0.0 0.0 0.0 0.0 0.0 1.00000000
* P-type functions
    5 4
        8.77639612
        2.91244194
        .64524808
        .23829384
        .14017285
 2.28316930 0.0 0.0 0.0
 2.27145280 0.0 0.0 0.0
 0.0 1.00000000 0.0 0.0
 0.0 0.0 1.00000000 0.0
 0.0 0.0 0.0 1.00000000
* D-type functions
    3 2
        3.46723845
        .58304893
        .17384257
 .63489064 0.0
 1.95150326 0.0
 0.0 1.00000000

/C.TZVP..8s6p5d3f.7s6p4d1f.
 Ref.: Weigend, Häser, Patzelt, Ahlrichs, CPL 294 (1998) 143.
C       (8s6p5d3f) -> [7s6p4d1f]

	6.000000 3
* S-type functions
    8 7
        281.47693316
        59.86260691
        23.28284492
        9.43365439
        3.31157947
        1.07438579
        .40591700
        .20682782
 .48911748 0.0 0.0 0.0 0.0 0.0 0.0
 1.52506644 0.0 0.0 0.0 0.0 0.0 0.0
 0.0 .53278071 0.0 0.0 0.0 0.0 0.0
 0.0 0.0 1.00000000 0.0 0.0 0.0 0.0
 0.0 0.0 0.0 1.00000000 0.0 0.0 0.0
 0.0 0.0 0.0 0.0 1.00000000 0.0 0.0
 0.0 0.0 0.0 0.0 0.0 1.00000000 0.0
 0.0 0.0 0.0 0.0 0.0 0.0 1.00000000
* P-type functions
    6 6
        24.79432276
        6.37908678
        2.73619827
        1.13180785
        .49171280
        .23760591
 1.27505829 0.0 0.0 0.0 0.0 0.0
 0.0 1.30659648 0.0 0.0 0.0 0.0
 0.0 0.0 1.00000000 0.0 0.0 0.0
 0.0 0.0 0.0 1.00000000 0.0 0.0
 0.0 0.0 0.0 0.0 1.00000000 0.0
 0.0 0.0 0.0 0.0 0.0 1.00000000
* D-type functions
    5 4
        9.06768796
        3.41167689
        1.41501615
        .58793486
        .25753087
 .47011119 0.0 0.0 0.0
 1.34112442 0.0 0.0 0.0
 0.0 1.00000000 0.0 0.0
 0.0 0.0 1.00000000 0.0
 0.0 0.0 0.0 1.00000000
* F-type functions
    3 1
        2.38701735
        1.16067992
        .55289817
 .79093613
 1.39179984
 .10532469

/Ca.TZVP..11s8p5d.11s6p3d.
 Ref.: Weigend, Häser, Patzelt, Ahlrichs, CPL 294 (1998) 143.
CA       (11s8p5d) -> [11s6p3d]

	20.000000 2
* S-type functions
    11 11
        84.49029943
        34.33156408
        15.84927396
        6.78336749
        2.15767912
        1.17541294
        .64031559
        .34881704
        .19002087
        .09851355
        .05793216
 -.86023361 0.0 0.0 0.0 0.0 0.0 0.0 0.0 0.0 0.0 0.0
 0.0 1.32000270 0.0 0.0 0.0 0.0 0.0 0.0 0.0 0.0 0.0
 0.0 0.0 1.09596673 0.0 0.0 0.0 0.0 0.0 0.0 0.0 0.0
 0.0 0.0 0.0 -1.79247900 0.0 0.0 0.0 0.0 0.0 0.0 0.0
 0.0 0.0 0.0 0.0 1.00000000 0.0 0.0 0.0 0.0 0.0 0.0
 0.0 0.0 0.0 0.0 0.0 1.00000000 0.0 0.0 0.0 0.0 0.0
 0.0 0.0 0.0 0.0 0.0 0.0 1.00000000 0.0 0.0 0.0 0.0
 0.0 0.0 0.0 0.0 0.0 0.0 0.0 1.00000000 0.0 0.0 0.0
 0.0 0.0 0.0 0.0 0.0 0.0 0.0 0.0 1.00000000 0.0 0.0
 0.0 0.0 0.0 0.0 0.0 0.0 0.0 0.0 0.0 1.00000000 0.0
 0.0 0.0 0.0 0.0 0.0 0.0 0.0 0.0 0.0 0.0 1.00000000
* P-type functions
    8 6
        17.14294516
        7.12440863
        2.52498402
        1.39946609
        .81539006
        .31787869
        .12621661
        .05859691
 1.00128870 0.0 0.0 0.0 0.0 0.0
 -1.17846097 0.0 0.0 0.0 0.0 0.0
 0.0 .58549908 0.0 0.0 0.0 0.0
 0.0 1.39185563 0.0 0.0 0.0 0.0
 0.0 0.0 1.00000000 0.0 0.0 0.0
 0.0 0.0 0.0 1.00000000 0.0 0.0
 0.0 0.0 0.0 0.0 1.00000000 0.0
 0.0 0.0 0.0 0.0 0.0 1.00000000
* D-type functions
    5 3
        57.64668912
        7.29261988
        1.86948948
        1.04115982
        .40353121
 1.07748966 0.0 0.0
 -.27896095 0.0 0.0
 1.69498083 0.0 0.0
 0.0 -.08930603 0.0
 0.0 0.0 1.00000000

/Cl.TZVP..10s7p7d3f.9s7p6d2f.
 Ref.: Weigend, Häser, Patzelt, Ahlrichs, CPL 294 (1998) 143.
CL       (10s7p7d3f) -> [9s7p6d2f]

	17.000000 3
* S-type functions
    10 9
        385.89005709
        130.70883193
        46.53749429
        17.24640258
        9.27291906
        5.01917584
        2.34352355
        1.15830222
        .56062866
        .26445562
 1.48825989 0.0 0.0 0.0 0.0 0.0 0.0 0.0 0.0
 -.17009471 0.0 0.0 0.0 0.0 0.0 0.0 0.0 0.0
 0.0 -.73044381 0.0 0.0 0.0 0.0 0.0 0.0 0.0
 0.0 0.0 1.00000000 0.0 0.0 0.0 0.0 0.0 0.0
 0.0 0.0 0.0 1.00000000 0.0 0.0 0.0 0.0 0.0
 0.0 0.0 0.0 0.0 1.00000000 0.0 0.0 0.0 0.0
 0.0 0.0 0.0 0.0 0.0 1.00000000 0.0 0.0 0.0
 0.0 0.0 0.0 0.0 0.0 0.0 1.00000000 0.0 0.0
 0.0 0.0 0.0 0.0 0.0 0.0 0.0 1.00000000 0.0
 0.0 0.0 0.0 0.0 0.0 0.0 0.0 0.0 1.00000000
* P-type functions
    7 7
        97.85776348
        17.00509146
        10.00299497
        3.12161431
        1.38917704
        .81716296
        .36897742
 -.75584284 0.0 0.0 0.0 0.0 0.0 0.0
 0.0 1.59383591 0.0 0.0 0.0 0.0 0.0
 0.0 0.0 .27403007 0.0 0.0 0.0 0.0
 0.0 0.0 0.0 -8.01712910 0.0 0.0 0.0
 0.0 0.0 0.0 0.0 1.00000000 0.0 0.0
 0.0 0.0 0.0 0.0 0.0 1.00000000 0.0
 0.0 0.0 0.0 0.0 0.0 0.0 1.00000000
* D-type functions
    7 6
        72.64014563
        23.83957402
        7.41751454
        4.09677307
        1.37427303
        .76852231
        .29102728
 .69836327 0.0 0.0 0.0 0.0 0.0
 .98150402 0.0 0.0 0.0 0.0 0.0
 0.0 .36971355 0.0 0.0 0.0 0.0
 0.0 0.0 1.11137938 0.0 0.0 0.0
 0.0 0.0 0.0 1.00000000 0.0 0.0
 0.0 0.0 0.0 0.0 1.00000000 0.0
 0.0 0.0 0.0 0.0 0.0 1.00000000
* F-type functions
    3 2
        5.11540688
        1.46396661
        .66657108
 -.38715894 0.0
 0.0 1.71390252
 0.0 .70983780

/Co.TZVP..11s9p7d6f4g.9s8p7d4f4g.
 Ref.: Weigend, Häser, Patzelt, Ahlrichs, CPL 294 (1998) 143.
CO       (11s9p7d6f4g) -> [9s8p7d4f4g]

	27.000000 4
* S-type functions
    11 9
        87.91374750
        39.53416400
        18.51892300
        9.00509950
        4.52807150
        2.34444300
        1.24410750
        .67331550
        .36970800
        .20484850
        .09897400
 -.09861927 0.0 0.0 0.0 0.0 0.0 0.0 0.0 0.0
 1.18384301 0.0 0.0 0.0 0.0 0.0 0.0 0.0 0.0
 -.52069094 0.0 0.0 0.0 0.0 0.0 0.0 0.0 0.0
 0.0 1.00000000 0.0 0.0 0.0 0.0 0.0 0.0 0.0
 0.0 0.0 1.00000000 0.0 0.0 0.0 0.0 0.0 0.0
 0.0 0.0 0.0 1.00000000 0.0 0.0 0.0 0.0 0.0
 0.0 0.0 0.0 0.0 1.00000000 0.0 0.0 0.0 0.0
 0.0 0.0 0.0 0.0 0.0 1.00000000 0.0 0.0 0.0
 0.0 0.0 0.0 0.0 0.0 0.0 1.00000000 0.0 0.0
 0.0 0.0 0.0 0.0 0.0 0.0 0.0 1.00000000 0.0
 0.0 0.0 0.0 0.0 0.0 0.0 0.0 0.0 1.00000000
* P-type functions
    9 8
        185.62498000
        45.52790500
        17.32552000
        4.45349350
        1.85094950
        1.10882390
        .51563999
        .25079817
        .10212394
 -.38583975 0.0 0.0 0.0 0.0 0.0 0.0 0.0
 1.55957835 0.0 0.0 0.0 0.0 0.0 0.0 0.0
 0.0 -1.13080934 0.0 0.0 0.0 0.0 0.0 0.0
 0.0 0.0 1.90445640 0.0 0.0 0.0 0.0 0.0
 0.0 0.0 0.0 1.00000000 0.0 0.0 0.0 0.0
 0.0 0.0 0.0 0.0 1.00000000 0.0 0.0 0.0
 0.0 0.0 0.0 0.0 0.0 1.00000000 0.0 0.0
 0.0 0.0 0.0 0.0 0.0 0.0 1.00000000 0.0
 0.0 0.0 0.0 0.0 0.0 0.0 0.0 1.00000000
* D-type functions
    7 7
        91.37364100
        21.28880200
        7.32694300
        3.77028000
        1.67313060
        .82386575
        .40955489
 1.51116379 0.0 0.0 0.0 0.0 0.0 0.0
 0.0 10.00024900 0.0 0.0 0.0 0.0 0.0
 0.0 0.0 1.41281817 0.0 0.0 0.0 0.0
 0.0 0.0 0.0 1.98652279 0.0 0.0 0.0
 0.0 0.0 0.0 0.0 1.00000000 0.0 0.0
 0.0 0.0 0.0 0.0 0.0 1.00000000 0.0
 0.0 0.0 0.0 0.0 0.0 0.0 1.00000000
* F-type functions
    6 4
        47.85722500
        13.99670800
        5.68182860
        2.84834130
        1.26669320
        .53870748
 -1.10470196 0.0 0.0 0.0
 .56745482 0.0 0.0 0.0
 2.25189560 0.0 0.0 0.0
 0.0 .58415514 0.0 0.0
 0.0 0.0 1.00000000 0.0
 0.0 0.0 0.0 1.00000000
* G-type functions
    4 4
        14.80689100
        4.91770570
        2.07102860
        .73233235
 1.25347561 0.0 0.0 0.0
 0.0 1.31897234 0.0 0.0
 0.0 0.0 -.29057415 0.0
 0.0 0.0 0.0 1.00000000

/Cr.TZVP..11s9p7d6f4g.9s8p7d4f4g.
 Ref.: Weigend, Häser, Patzelt, Ahlrichs, CPL 294 (1998) 143.
CR       (11s9p7d6f4g) -> [9s8p7d4f4g]

	24.000000 4
* S-type functions
    11 9
        104.80967800
        46.05014500
        21.03946300
        9.96292800
        4.87169800
        2.44979600
        1.26120300
        .66152600
        .35171700
        .18854200
        .10134900
 -.54197522 0.0 0.0 0.0 0.0 0.0 0.0 0.0 0.0
 1.22218150 0.0 0.0 0.0 0.0 0.0 0.0 0.0 0.0
 .28193726 0.0 0.0 0.0 0.0 0.0 0.0 0.0 0.0
 0.0 1.00000000 0.0 0.0 0.0 0.0 0.0 0.0 0.0
 0.0 0.0 1.00000000 0.0 0.0 0.0 0.0 0.0 0.0
 0.0 0.0 0.0 1.00000000 0.0 0.0 0.0 0.0 0.0
 0.0 0.0 0.0 0.0 1.00000000 0.0 0.0 0.0 0.0
 0.0 0.0 0.0 0.0 0.0 1.00000000 0.0 0.0 0.0
 0.0 0.0 0.0 0.0 0.0 0.0 1.00000000 0.0 0.0
 0.0 0.0 0.0 0.0 0.0 0.0 0.0 1.00000000 0.0
 0.0 0.0 0.0 0.0 0.0 0.0 0.0 0.0 1.00000000
* P-type functions
    9 8
        155.17916800
        45.54184900
        11.63836300
        3.22161060
        1.13343630
        .68303337
        .34039681
        .18520092
        .09628531
 -.76299511 0.0 0.0 0.0 0.0 0.0 0.0 0.0
 1.55833318 0.0 0.0 0.0 0.0 0.0 0.0 0.0
 0.0 -1.11212722 0.0 0.0 0.0 0.0 0.0 0.0
 0.0 0.0 1.92638544 0.0 0.0 0.0 0.0 0.0
 0.0 0.0 0.0 1.00000000 0.0 0.0 0.0 0.0
 0.0 0.0 0.0 0.0 1.00000000 0.0 0.0 0.0
 0.0 0.0 0.0 0.0 0.0 1.00000000 0.0 0.0
 0.0 0.0 0.0 0.0 0.0 0.0 1.00000000 0.0
 0.0 0.0 0.0 0.0 0.0 0.0 0.0 1.00000000
* D-type functions
    7 7
        65.76477500
        16.11212000
        4.61452280
        2.50487056
        1.13497561
        .58747873
        .23122702
 1.98746283 0.0 0.0 0.0 0.0 0.0 0.0
 0.0 10.00025600 0.0 0.0 0.0 0.0 0.0
 0.0 0.0 .93926992 0.0 0.0 0.0 0.0
 0.0 0.0 0.0 1.17434421 0.0 0.0 0.0
 0.0 0.0 0.0 0.0 1.00000000 0.0 0.0
 0.0 0.0 0.0 0.0 0.0 1.00000000 0.0
 0.0 0.0 0.0 0.0 0.0 0.0 1.00000000
* F-type functions
    6 4
        34.91727200
        8.09040850
        3.94951690
        1.98469260
        .93559599
        .34513210
 -1.19832591 0.0 0.0 0.0
 .91307778 0.0 0.0 0.0
 2.37020114 0.0 0.0 0.0
 0.0 1.13677141 0.0 0.0
 0.0 0.0 1.33025157 0.0
 0.0 0.0 0.0 .83742811
* G-type functions
    4 4
        9.93872040
        3.32134140
        1.11479145
        .40518973
 1.08516128 0.0 0.0 0.0
 0.0 1.23003918 0.0 0.0
 0.0 0.0 -.11281477 0.0
 0.0 0.0 0.0 1.00000000

/Cu.TZVP..11s9p7d6f4g.9s8p7d4f4g.
 Ref.: Weigend, Häser, Patzelt, Ahlrichs, CPL 294 (1998) 143.
CU       (11s9p7d6f4g) -> [9s8p7d4f4g]

	29.000000 4
* S-type functions
    11 9
        76.61888700
        35.84420500
        17.43598000
        8.79010800
        4.57569200
        2.44935700
        1.34224700
        .74938200
        .42407900
        .24196400
        .13843600
 .22127009 0.0 0.0 0.0 0.0 0.0 0.0 0.0 0.0
 1.10771089 0.0 0.0 0.0 0.0 0.0 0.0 0.0 0.0
 -1.23596756 0.0 0.0 0.0 0.0 0.0 0.0 0.0 0.0
 0.0 1.00000000 0.0 0.0 0.0 0.0 0.0 0.0 0.0
 0.0 0.0 1.00000000 0.0 0.0 0.0 0.0 0.0 0.0
 0.0 0.0 0.0 1.00000000 0.0 0.0 0.0 0.0 0.0
 0.0 0.0 0.0 0.0 1.00000000 0.0 0.0 0.0 0.0
 0.0 0.0 0.0 0.0 0.0 1.00000000 0.0 0.0 0.0
 0.0 0.0 0.0 0.0 0.0 0.0 1.00000000 0.0 0.0
 0.0 0.0 0.0 0.0 0.0 0.0 0.0 1.00000000 0.0
 0.0 0.0 0.0 0.0 0.0 0.0 0.0 0.0 1.00000000
* P-type functions
    9 8
        214.96507000
        49.56055100
        21.13481700
        5.35438120
        2.19793250
        1.36618190
        .60037788
        .33277531
        .14673856
 -.38582926 0.0 0.0 0.0 0.0 0.0 0.0 0.0
 1.55957840 0.0 0.0 0.0 0.0 0.0 0.0 0.0
 0.0 -1.17913540 0.0 0.0 0.0 0.0 0.0 0.0
 0.0 0.0 1.89982860 0.0 0.0 0.0 0.0 0.0
 0.0 0.0 0.0 1.00000000 0.0 0.0 0.0 0.0
 0.0 0.0 0.0 0.0 1.00000000 0.0 0.0 0.0
 0.0 0.0 0.0 0.0 0.0 1.00000000 0.0 0.0
 0.0 0.0 0.0 0.0 0.0 0.0 1.00000000 0.0
 0.0 0.0 0.0 0.0 0.0 0.0 0.0 1.00000000
* D-type functions
    7 7
        106.44265000
        23.19483600
        8.84118380
        4.57102270
        1.82217990
        .85046261
        .38749958
 2.09841882 0.0 0.0 0.0 0.0 0.0 0.0
 0.0 10.00024900 0.0 0.0 0.0 0.0 0.0
 0.0 0.0 .94747908 0.0 0.0 0.0 0.0
 0.0 0.0 0.0 1.26590806 0.0 0.0 0.0
 0.0 0.0 0.0 0.0 1.00000000 0.0 0.0
 0.0 0.0 0.0 0.0 0.0 1.00000000 0.0
 0.0 0.0 0.0 0.0 0.0 0.0 1.00000000
* F-type functions
    6 4
        52.13364200
        13.24690900
        6.28481480
        3.05058080
        1.47003350
        .50664456
 -1.27232142 0.0 0.0 0.0
 1.15816535 0.0 0.0 0.0
 2.20111275 0.0 0.0 0.0
 0.0 .70886158 0.0 0.0
 0.0 0.0 1.00000000 0.0
 0.0 0.0 0.0 1.00000000
* G-type functions
    4 4
        17.80510400
        6.02365790
        2.06261490
        .70220936
 1.25317348 0.0 0.0 0.0
 0.0 1.31975806 0.0 0.0
 0.0 0.0 -.16398042 0.0
 0.0 0.0 0.0 1.00000000

/F.TZVP..8s6p5d3f.7s6p4d1f.
 Ref.: Weigend, Häser, Patzelt, Ahlrichs, CPL 294 (1998) 143.
F       (8s6p5d3f) -> [7s6p4d1f]

	9.000000 3
* S-type functions
    8 7
        423.09461295
        94.25656621
        32.83700743
        11.82804368
        4.57669070
        2.03364328
        .98129033
        .39644813
 .76390649 0.0 0.0 0.0 0.0 0.0 0.0
 1.36572654 0.0 0.0 0.0 0.0 0.0 0.0
 0.0 .46102666 0.0 0.0 0.0 0.0 0.0
 0.0 0.0 1.00000000 0.0 0.0 0.0 0.0
 0.0 0.0 0.0 1.00000000 0.0 0.0 0.0
 0.0 0.0 0.0 0.0 1.00000000 0.0 0.0
 0.0 0.0 0.0 0.0 0.0 1.00000000 0.0
 0.0 0.0 0.0 0.0 0.0 0.0 1.00000000
* P-type functions
    6 6
        53.94494177
        14.01875386
        4.90086412
        2.53312778
        1.17650888
        .52636887
 1.59714200 0.0 0.0 0.0 0.0 0.0
 0.0 1.12931208 0.0 0.0 0.0 0.0
 0.0 0.0 1.00000000 0.0 0.0 0.0
 0.0 0.0 0.0 1.00000000 0.0 0.0
 0.0 0.0 0.0 0.0 1.00000000 0.0
 0.0 0.0 0.0 0.0 0.0 1.00000000
* D-type functions
    5 4
        25.04696132
        9.58418954
        3.48946293
        1.58103228
        .50968658
 .59910575 0.0 0.0 0.0
 1.00663766 0.0 0.0 0.0
 0.0 1.00000000 0.0 0.0
 0.0 0.0 1.00000000 0.0
 0.0 0.0 0.0 1.00000000
* F-type functions
    3 1
        6.51676748
        3.08300338
        1.43439592
 .17116274
 1.44883740
 .43282911

/Fe.TZVP..11s9p7d6f4g.9s8p7d4f4g.
 Ref.: Weigend, Häser, Patzelt, Ahlrichs, CPL 294 (1998) 143.
FE       (11s9p7d6f4g) -> [9s8p7d4f4g]

	26.000000 4
* S-type functions
    11 9
        103.85349100
        45.27861300
        20.56439300
        9.69677400
        4.72897700
        2.37510000
        1.22274400
        .64199200
        .34192300
        .18369300
        .09897400
 -.37210225 0.0 0.0 0.0 0.0 0.0 0.0 0.0 0.0
 1.19914003 0.0 0.0 0.0 0.0 0.0 0.0 0.0 0.0
 -.16381019 0.0 0.0 0.0 0.0 0.0 0.0 0.0 0.0
 0.0 1.00000000 0.0 0.0 0.0 0.0 0.0 0.0 0.0
 0.0 0.0 1.00000000 0.0 0.0 0.0 0.0 0.0 0.0
 0.0 0.0 0.0 1.00000000 0.0 0.0 0.0 0.0 0.0
 0.0 0.0 0.0 0.0 1.00000000 0.0 0.0 0.0 0.0
 0.0 0.0 0.0 0.0 0.0 1.00000000 0.0 0.0 0.0
 0.0 0.0 0.0 0.0 0.0 0.0 1.00000000 0.0 0.0
 0.0 0.0 0.0 0.0 0.0 0.0 0.0 1.00000000 0.0
 0.0 0.0 0.0 0.0 0.0 0.0 0.0 0.0 1.00000000
* P-type functions
    9 8
        154.88878755
        43.57111900
        15.47321300
        4.07017983
        1.54905689
        .92053237
        .46359660
        .24240288
        .10006571
 -.45001013 0.0 0.0 0.0 0.0 0.0 0.0 0.0
 1.54999995 0.0 0.0 0.0 0.0 0.0 0.0 0.0
 0.0 -1.21908267 0.0 0.0 0.0 0.0 0.0 0.0
 0.0 0.0 2.05074008 0.0 0.0 0.0 0.0 0.0
 0.0 0.0 0.0 1.00000000 0.0 0.0 0.0 0.0
 0.0 0.0 0.0 0.0 1.00000000 0.0 0.0 0.0
 0.0 0.0 0.0 0.0 0.0 1.00000000 0.0 0.0
 0.0 0.0 0.0 0.0 0.0 0.0 1.00000000 0.0
 0.0 0.0 0.0 0.0 0.0 0.0 0.0 1.00000000
* D-type functions
    7 7
        84.09599100
        20.68302600
        6.30325319
        3.36002127
        1.66446236
        .74083771
        .37913760
 1.25000007 0.0 0.0 0.0 0.0 0.0 0.0
 0.0 10.00029400 0.0 0.0 0.0 0.0 0.0
 0.0 0.0 1.25723226 0.0 0.0 0.0 0.0
 0.0 0.0 0.0 1.79128728 0.0 0.0 0.0
 0.0 0.0 0.0 0.0 1.00000000 0.0 0.0
 0.0 0.0 0.0 0.0 0.0 1.00000000 0.0
 0.0 0.0 0.0 0.0 0.0 0.0 1.00000000
* F-type functions
    6 4
        43.12980225
        12.12891803
        5.32089898
        2.68619549
        1.22794114
        .51072946
 -1.10219690 0.0 0.0 0.0
 .53544293 0.0 0.0 0.0
 2.25007370 0.0 0.0 0.0
 0.0 .84376834 0.0 0.0
 0.0 0.0 1.00000000 0.0
 0.0 0.0 0.0 1.00000000
* G-type functions
    4 4
        13.30168700
        4.43861855
        1.88218331
        .66850946
 1.17076280 0.0 0.0 0.0
 0.0 1.25220510 0.0 0.0
 0.0 0.0 -.26634128 0.0
 0.0 0.0 0.0 1.00000000

/H.TZVP..4s3p2d.4s2p1d.
 Ref.: Weigend, Häser, Patzelt, Ahlrichs, CPL 294 (1998) 143.
H       (4s3p2d) -> [4s2p1d]

	1.000000 2
* S-type functions
    4 4
        9.33521609
        1.86110704
        .59512466
        .26448099
 .64609379 0.0 0.0 0.0
 0.0 1.37005241 0.0 0.0
 0.0 0.0 1.00000000 0.0
 0.0 0.0 0.0 1.00000000
* P-type functions
    3 2
        2.45249821
        1.35403830
        .59522394
 .13284956 0.0
 1.45276215 0.0
 0.0 1.00000000
* D-type functions
    2 1
        1.58163766
        .62743960
 1.49367397
 -.01070690

/He.TZVP..4s3p.4s3p.
 Ref.: Weigend, Häser, Patzelt, Ahlrichs, CPL 294 (1998) 143.
HE       (4s3p) -> [4s3p]

	2.000000 1
* S-type functions
    4 4
        24.71889717
        5.35952422
        1.56023734
        .55343668
 .26232950 0.0 0.0 0.0
 0.0 .74373221 0.0 0.0
 0.0 0.0 1.00000000 0.0
 0.0 0.0 0.0 1.00000000
* P-type functions
    3 3
        6.94853275
        3.47887085
        1.23998485
 -.26439504 0.0 0.0
 0.0 1.62594634 0.0
 0.0 0.0 1.00000000

/K.TZVP..11s8p5d.11s6p3d.
 Ref.: Weigend, Häser, Patzelt, Ahlrichs, CPL 294 (1998) 143.
K       (11s8p5d) -> [11s6p3d]

	19.000000 2
* S-type functions
    11 11
        81.10618623
        34.06174961
        15.19817028
        6.51339644
        2.51864571
        1.33938986
        .69708279
        .37525235
        .20700377
        .12853991
        .06887325
 -1.23750809 0.0 0.0 0.0 0.0 0.0 0.0 0.0 0.0 0.0 0.0
 0.0 1.32484700 0.0 0.0 0.0 0.0 0.0 0.0 0.0 0.0 0.0
 0.0 0.0 1.16453016 0.0 0.0 0.0 0.0 0.0 0.0 0.0 0.0
 0.0 0.0 0.0 -.55784269 0.0 0.0 0.0 0.0 0.0 0.0 0.0
 0.0 0.0 0.0 0.0 1.41422068 0.0 0.0 0.0 0.0 0.0 0.0
 0.0 0.0 0.0 0.0 0.0 -1.85274778 0.0 0.0 0.0 0.0 0.0
 0.0 0.0 0.0 0.0 0.0 0.0 1.00000000 0.0 0.0 0.0 0.0
 0.0 0.0 0.0 0.0 0.0 0.0 0.0 1.00000000 0.0 0.0 0.0
 0.0 0.0 0.0 0.0 0.0 0.0 0.0 0.0 1.00000000 0.0 0.0
 0.0 0.0 0.0 0.0 0.0 0.0 0.0 0.0 0.0 1.00000000 0.0
 0.0 0.0 0.0 0.0 0.0 0.0 0.0 0.0 0.0 0.0 1.00000000
* P-type functions
    8 6
        14.82934627
        6.39288615
        2.18312118
        1.13856617
        .68401320
        .29354543
        .15461833
        .06900262
 1.04707883 0.0 0.0 0.0 0.0 0.0
 -1.18158996 0.0 0.0 0.0 0.0 0.0
 0.0 .53436324 0.0 0.0 0.0 0.0
 0.0 1.38930508 0.0 0.0 0.0 0.0
 0.0 0.0 1.00000000 0.0 0.0 0.0
 0.0 0.0 0.0 1.00000000 0.0 0.0
 0.0 0.0 0.0 0.0 1.00000000 0.0
 0.0 0.0 0.0 0.0 0.0 1.00000000
* D-type functions
    5 3
        51.19655536
        5.56268086
        1.59940445
        .79868814
        .33811191
 1.17346853 0.0 0.0
 -.25128516 0.0 0.0
 1.66728717 0.0 0.0
 0.0 .39829447 0.0
 0.0 0.0 1.00000000

/Kr.TZVP..10s9p8d6f4g.10s9p8d5f3g.
 Ref.: C. Hättig, PCCP 7 (2005) 59-66.
KR       (10s9p8d6f4g) -> [10s9p8d5f3g]

	36.000000 4
* S-type functions
    10 10
        82.1068
        43.4969
        22.1338
        10.9625
        4.09440
        1.65408
        0.976377
        0.548192
        0.283145
        0.175084
 1.00000 0.0 0.0 0.0 0.0 0.0 0.0 0.0 0.0 0.0
 0.0 1.00000 0.0 0.0 0.0 0.0 0.0 0.0 0.0 0.0
 0.0 0.0 1.00000 0.0 0.0 0.0 0.0 0.0 0.0 0.0
 0.0 0.0 0.0 1.00000 0.0 0.0 0.0 0.0 0.0 0.0
 0.0 0.0 0.0 0.0 1.00000 0.0 0.0 0.0 0.0 0.0
 0.0 0.0 0.0 0.0 0.0 1.00000 0.0 0.0 0.0 0.0
 0.0 0.0 0.0 0.0 0.0 0.0 1.00000 0.0 0.0 0.0
 0.0 0.0 0.0 0.0 0.0 0.0 0.0 1.00000 0.0 0.0
 0.0 0.0 0.0 0.0 0.0 0.0 0.0 0.0 1.00000 0.0
 0.0 0.0 0.0 0.0 0.0 0.0 0.0 0.0 0.0 1.00000
* P-type functions
    9 9
        68.4304
        28.2381
        11.2522
        4.26902
        2.14407
        1.35239
        0.726056
        0.380576
        0.163467
 1.00000 0.0 0.0 0.0 0.0 0.0 0.0 0.0 0.0
 0.0 1.00000 0.0 0.0 0.0 0.0 0.0 0.0 0.0
 0.0 0.0 1.00000 0.0 0.0 0.0 0.0 0.0 0.0
 0.0 0.0 0.0 1.00000 0.0 0.0 0.0 0.0 0.0
 0.0 0.0 0.0 0.0 1.00000 0.0 0.0 0.0 0.0
 0.0 0.0 0.0 0.0 0.0 1.00000 0.0 0.0 0.0
 0.0 0.0 0.0 0.0 0.0 0.0 1.00000 0.0 0.0
 0.0 0.0 0.0 0.0 0.0 0.0 0.0 1.00000 0.0
 0.0 0.0 0.0 0.0 0.0 0.0 0.0 0.0 1.00000
* D-type functions
    8 8
        134.471
        48.1020
        11.7666
        4.43029
        1.68056
        0.994095
        0.651717
        0.259342
 1.00000 0.0 0.0 0.0 0.0 0.0 0.0 0.0
 0.0 1.00000 0.0 0.0 0.0 0.0 0.0 0.0
 0.0 0.0 1.00000 0.0 0.0 0.0 0.0 0.0
 0.0 0.0 0.0 1.00000 0.0 0.0 0.0 0.0
 0.0 0.0 0.0 0.0 1.00000 0.0 0.0 0.0
 0.0 0.0 0.0 0.0 0.0 1.00000 0.0 0.0
 0.0 0.0 0.0 0.0 0.0 0.0 1.00000 0.0
 0.0 0.0 0.0 0.0 0.0 0.0 0.0 1.00000
* F-type functions
    6 5
        111.443
        14.4995
        3.68851
        1.95195
        0.962979
        0.451834
 -0.620223 0.0 0.0 0.0 0.0
 1.57075 0.0 0.0 0.0 0.0
 0.0 1.00000 0.0 0.0 0.0
 0.0 0.0 1.00000 0.0 0.0
 0.0 0.0 0.0 1.00000 0.0
 0.0 0.0 0.0 0.0 1.00000
* G-type functions
    4 3
        29.1944
        9.35819
        3.93241
        0.994893
 1.27370 0.0 0.0
 0.615732 0.0 0.0
 0.0 1.00000 0.0
 0.0 0.0 1.00000

/Li.TZVP..9s5p3d.8s4p1d.
 Ref.: Weigend, Häser, Patzelt, Ahlrichs, CPL 294 (1998) 143.
LI       (9s5p3d) -> [8s4p1d]

	3.000000 2
* S-type functions
    9 8
        85.45104308
        17.87567441
        4.47193376
        2.71544889
        1.18173544
        .42837629
        .16838543
        .10506578
        .04332633
 .25324236 0.0 0.0 0.0 0.0 0.0 0.0 0.0
 1.43298030 0.0 0.0 0.0 0.0 0.0 0.0 0.0
 0.0 .90772073 0.0 0.0 0.0 0.0 0.0 0.0
 0.0 0.0 .23753913 0.0 0.0 0.0 0.0 0.0
 0.0 0.0 0.0 -.44771122 0.0 0.0 0.0 0.0
 0.0 0.0 0.0 0.0 1.00000000 0.0 0.0 0.0
 0.0 0.0 0.0 0.0 0.0 1.00000000 0.0 0.0
 0.0 0.0 0.0 0.0 0.0 0.0 1.00000000 0.0
 0.0 0.0 0.0 0.0 0.0 0.0 0.0 1.00000000
* P-type functions
    5 4
        7.13462429
        2.65072928
        .68766224
        .33680161
        .15852579
 .21273138 0.0 0.0 0.0
 .38815992 0.0 0.0 0.0
 0.0 1.43472717 0.0 0.0
 0.0 0.0 1.00000000 0.0
 0.0 0.0 0.0 1.00000000
* D-type functions
    3 1
        3.66955976
        .63295635
        .14763175
 -.76839821
 1.77449682
 1.23018018

/Mg.TZVP..10s8p5d.9s6p4d.
 Ref.: Weigend, Häser, Patzelt, Ahlrichs, CPL 294 (1998) 143.
MG       (10s8p5d) -> [9s6p4d]

	12.000000 2
* S-type functions
    10 9
        217.77940183
        76.52051458
        28.51973844
        11.71043999
        5.36009490
        2.12763972
        .90785010
        .37462351
        .16966626
        .08258106
 .57112470 0.0 0.0 0.0 0.0 0.0 0.0 0.0 0.0
 .43608986 0.0 0.0 0.0 0.0 0.0 0.0 0.0 0.0
 0.0 -7.14706530 0.0 0.0 0.0 0.0 0.0 0.0 0.0
 0.0 0.0 .63306458 0.0 0.0 0.0 0.0 0.0 0.0
 0.0 0.0 0.0 1.66969264 0.0 0.0 0.0 0.0 0.0
 0.0 0.0 0.0 0.0 .58612939 0.0 0.0 0.0 0.0
 0.0 0.0 0.0 0.0 0.0 1.00000000 0.0 0.0 0.0
 0.0 0.0 0.0 0.0 0.0 0.0 1.00000000 0.0 0.0
 0.0 0.0 0.0 0.0 0.0 0.0 0.0 1.00000000 0.0
 0.0 0.0 0.0 0.0 0.0 0.0 0.0 0.0 1.00000000
* P-type functions
    8 6
        50.48164301
        13.40344564
        5.53066940
        3.25333494
        1.15477278
        .67927811
        .26715533
        .10784113
 -1.05900612 0.0 0.0 0.0 0.0 0.0
 .68345614 0.0 0.0 0.0 0.0 0.0
 1.83304611 0.0 0.0 0.0 0.0 0.0
 0.0 .17746258 0.0 0.0 0.0 0.0
 0.0 0.0 1.00000000 0.0 0.0 0.0
 0.0 0.0 0.0 1.00000000 0.0 0.0
 0.0 0.0 0.0 0.0 1.00000000 0.0
 0.0 0.0 0.0 0.0 0.0 1.00000000
* D-type functions
    5 4
        22.85741466
        7.05542027
        4.15024722
        1.45027663
        .62197306
 1.93743312 0.0 0.0 0.0
 1.85871548 0.0 0.0 0.0
 0.0 .52435180 0.0 0.0
 0.0 0.0 -.52718666 0.0
 0.0 0.0 0.0 1.00000000

/Mn.TZVP..11s9p7d6f4g.9s8p7d4f4g.
 Ref.: Weigend, Häser, Patzelt, Ahlrichs, CPL 294 (1998) 143.
MN       (11s9p7d6f4g) -> [9s8p7d4f4g]

	25.000000 4
* S-type functions
    11 9
        99.36791000
        43.16958700
        19.54268700
        9.18750300
        4.46837200
        2.23859300
        1.14980900
        .60240200
        .32018600
        .17167900
        .09232200
 -.46910932 0.0 0.0 0.0 0.0 0.0 0.0 0.0 0.0
 1.22325418 0.0 0.0 0.0 0.0 0.0 0.0 0.0 0.0
 .16158665 0.0 0.0 0.0 0.0 0.0 0.0 0.0 0.0
 0.0 1.00000000 0.0 0.0 0.0 0.0 0.0 0.0 0.0
 0.0 0.0 1.00000000 0.0 0.0 0.0 0.0 0.0 0.0
 0.0 0.0 0.0 1.00000000 0.0 0.0 0.0 0.0 0.0
 0.0 0.0 0.0 0.0 1.00000000 0.0 0.0 0.0 0.0
 0.0 0.0 0.0 0.0 0.0 1.00000000 0.0 0.0 0.0
 0.0 0.0 0.0 0.0 0.0 0.0 1.00000000 0.0 0.0
 0.0 0.0 0.0 0.0 0.0 0.0 0.0 1.00000000 0.0
 0.0 0.0 0.0 0.0 0.0 0.0 0.0 0.0 1.00000000
* P-type functions
    9 8
        155.39782000
        41.59645600
        13.62342200
        3.68785626
        1.34266729
        .78431978
        .41450198
        .21710395
        .09917532
 -.53416708 0.0 0.0 0.0 0.0 0.0 0.0 0.0
 1.55887539 0.0 0.0 0.0 0.0 0.0 0.0 0.0
 0.0 -1.13030571 0.0 0.0 0.0 0.0 0.0 0.0
 0.0 0.0 1.91367551 0.0 0.0 0.0 0.0 0.0
 0.0 0.0 0.0 1.00000000 0.0 0.0 0.0 0.0
 0.0 0.0 0.0 0.0 1.00000000 0.0 0.0 0.0
 0.0 0.0 0.0 0.0 0.0 1.00000000 0.0 0.0
 0.0 0.0 0.0 0.0 0.0 0.0 1.00000000 0.0
 0.0 0.0 0.0 0.0 0.0 0.0 0.0 1.00000000
* D-type functions
    7 7
        76.69963300
        19.92146400
        6.21078120
        3.18769490
        1.63600465
        .73210843
        .34714648
 .97947023 0.0 0.0 0.0 0.0 0.0 0.0
 0.0 10.00031419 0.0 0.0 0.0 0.0 0.0
 0.0 0.0 .55889086 0.0 0.0 0.0 0.0
 0.0 0.0 0.0 1.32757984 0.0 0.0 0.0
 0.0 0.0 0.0 0.0 1.00000000 0.0 0.0
 0.0 0.0 0.0 0.0 0.0 1.00000000 0.0
 0.0 0.0 0.0 0.0 0.0 0.0 1.00000000
* F-type functions
    6 4
        44.93332700
        14.44539800
        5.33630890
        2.68791062
        1.18775474
        .50636700
 -1.06646064 0.0 0.0 0.0
 .16186427 0.0 0.0 0.0
 2.29081079 0.0 0.0 0.0
 0.0 1.16471781 0.0 0.0
 0.0 0.0 1.00000000 0.0
 0.0 0.0 0.0 1.00000000
* G-type functions
    4 4
        12.01150800
        3.98869728
        1.72124680
        .61711554
 1.00984668 0.0 0.0 0.0
 0.0 1.20165038 0.0 0.0
 0.0 0.0 -.25066922 0.0
 0.0 0.0 0.0 1.00000000

/N.TZVP..8s6p5d3f.7s6p4d1f.
 Ref.: Weigend, Häser, Patzelt, Ahlrichs, CPL 294 (1998) 143.
N       (8s6p5d3f) -> [7s6p4d1f]

	7.000000 3
* S-type functions
    8 7
        291.18394257
        62.03053238
        21.98113229
        9.06711534
        3.60654848
        1.37284474
        .63709085
        .26907231
 .56533084 0.0 0.0 0.0 0.0 0.0 0.0
 1.37490932 0.0 0.0 0.0 0.0 0.0 0.0
 0.0 .28294012 0.0 0.0 0.0 0.0 0.0
 0.0 0.0 1.00000000 0.0 0.0 0.0 0.0
 0.0 0.0 0.0 1.00000000 0.0 0.0 0.0
 0.0 0.0 0.0 0.0 1.00000000 0.0 0.0
 0.0 0.0 0.0 0.0 0.0 1.00000000 0.0
 0.0 0.0 0.0 0.0 0.0 0.0 1.00000000
* P-type functions
    6 6
        34.12169197
        8.66927085
        3.96958444
        1.67569027
        .69769401
        .33582544
 1.03739350 0.0 0.0 0.0 0.0 0.0
 0.0 .98879118 0.0 0.0 0.0 0.0
 0.0 0.0 1.00000000 0.0 0.0 0.0
 0.0 0.0 0.0 1.00000000 0.0 0.0
 0.0 0.0 0.0 0.0 1.00000000 0.0
 0.0 0.0 0.0 0.0 0.0 1.00000000
* D-type functions
    5 4
        12.72717340
        5.02916611
        2.09125025
        .85902043
        .35068479
 .53636257 0.0 0.0 0.0
 1.31247449 0.0 0.0 0.0
 0.0 1.00000000 0.0 0.0
 0.0 0.0 1.00000000 0.0
 0.0 0.0 0.0 1.00000000
* F-type functions
    3 1
        3.46865369
        1.66865042
        .80947600
 .90354051
 1.65562725
 .24984638

/Na.TZVP..10s8p5d.9s6p4d.
 Ref.: Weigend, Häser, Patzelt, Ahlrichs, CPL 294 (1998) 143.
NA       (10s8p5d) -> [9s6p4d]

	11.000000 2
* S-type functions
    10 9
        217.13024000
        80.12971600
        30.57544200
        11.59738900
        4.45442570
        1.76425540
        .83435592
        .36788034
        .16006883
        .06959121
 .57112470 0.0 0.0 0.0 0.0 0.0 0.0 0.0 0.0
 .43608986 0.0 0.0 0.0 0.0 0.0 0.0 0.0 0.0
 0.0 -7.14313110 0.0 0.0 0.0 0.0 0.0 0.0 0.0
 0.0 0.0 .63306458 0.0 0.0 0.0 0.0 0.0 0.0
 0.0 0.0 0.0 1.22750170 0.0 0.0 0.0 0.0 0.0
 0.0 0.0 0.0 0.0 1.00271106 0.0 0.0 0.0 0.0
 0.0 0.0 0.0 0.0 0.0 -.37019479 0.0 0.0 0.0
 0.0 0.0 0.0 0.0 0.0 0.0 1.00000000 0.0 0.0
 0.0 0.0 0.0 0.0 0.0 0.0 0.0 1.00000000 0.0
 0.0 0.0 0.0 0.0 0.0 0.0 0.0 0.0 1.00000000
* P-type functions
    8 6
        51.73344748
        16.89323105
        5.33025023
        2.37497777
        .86950161
        .45510046
        .13850190
        .06546184
 -.89146236 0.0 0.0 0.0 0.0 0.0
 .11479756 0.0 0.0 0.0 0.0 0.0
 1.89299339 0.0 0.0 0.0 0.0 0.0
 0.0 .63784622 0.0 0.0 0.0 0.0
 0.0 0.0 1.00000000 0.0 0.0 0.0
 0.0 0.0 0.0 1.00000000 0.0 0.0
 0.0 0.0 0.0 0.0 1.00000000 0.0
 0.0 0.0 0.0 0.0 0.0 1.00000000
* D-type functions
    5 4
        22.01375961
        6.89290781
        3.71051338
        1.07319396
        .47937881
 1.70262148 0.0 0.0 0.0
 1.69792091 0.0 0.0 0.0
 0.0 1.18092165 0.0 0.0
 0.0 0.0 -.12141903 0.0
 0.0 0.0 0.0 1.00000000

/Ne.TZVP..8s6p5d3f.7s6p4d1f.
 Ref.: C. Hättig, PCCP 7 (2005) 59-66.
NE       (8s6p5d3f) -> [7s6p4d1f]

	10.000000 3
* S-type functions
    8 7
        626.227
        141.090
        29.4706
        11.3204
        4.62065
        1.88601
        1.09986
        0.506496
 1.00000 0.0 0.0 0.0 0.0 0.0 0.0
 1.75948 0.0 0.0 0.0 0.0 0.0 0.0
 0.0 1.00000 0.0 0.0 0.0 0.0 0.0
 0.0 0.0 1.00000 0.0 0.0 0.0 0.0
 0.0 0.0 0.0 1.00000 0.0 0.0 0.0
 0.0 0.0 0.0 0.0 1.00000 0.0 0.0
 0.0 0.0 0.0 0.0 0.0 1.00000 0.0
 0.0 0.0 0.0 0.0 0.0 0.0 1.00000
* P-type functions
    6 6
        89.1569
        25.1456
        8.54541
        3.87801
        1.61638
        0.676412
 1.00000 0.0 0.0 0.0 0.0 0.0
 0.0 1.00000 0.0 0.0 0.0 0.0
 0.0 0.0 1.00000 0.0 0.0 0.0
 0.0 0.0 0.0 1.00000 0.0 0.0
 0.0 0.0 0.0 0.0 1.00000 0.0
 0.0 0.0 0.0 0.0 0.0 1.00000
* D-type functions
    5 4
        25.0470
        9.58419
        4.56241
        2.14273
        0.627853
 0.701458 0.0 0.0 0.0
 0.991667 0.0 0.0 0.0
 0.0 1.00000 0.0 0.0
 0.0 0.0 1.00000 0.0
 0.0 0.0 0.0 1.00000
* F-type functions
    3 1
        9.17098
        4.20953
        1.90355
 1.00000
 3.18117
 1.31756

/Ni.TZVP..11s9p7d6f4g.9s8p7d4f4g.
 Ref.: Weigend, Häser, Patzelt, Ahlrichs, CPL 294 (1998) 143.
NI       (11s9p7d6f4g) -> [9s8p7d4f4g]

	28.000000 4
* S-type functions
    11 9
        71.97400400
        33.78971500
        16.47345300
        8.31342500
        4.32716600
        2.31378600
        1.26547100
        .70463900
        .39749300
        .22600400
        .12884000
 .12969177 0.0 0.0 0.0 0.0 0.0 0.0 0.0 0.0
 1.10584745 0.0 0.0 0.0 0.0 0.0 0.0 0.0 0.0
 -1.21552622 0.0 0.0 0.0 0.0 0.0 0.0 0.0 0.0
 0.0 1.00000000 0.0 0.0 0.0 0.0 0.0 0.0 0.0
 0.0 0.0 1.00000000 0.0 0.0 0.0 0.0 0.0 0.0
 0.0 0.0 0.0 1.00000000 0.0 0.0 0.0 0.0 0.0
 0.0 0.0 0.0 0.0 1.00000000 0.0 0.0 0.0 0.0
 0.0 0.0 0.0 0.0 0.0 1.00000000 0.0 0.0 0.0
 0.0 0.0 0.0 0.0 0.0 0.0 1.00000000 0.0 0.0
 0.0 0.0 0.0 0.0 0.0 0.0 0.0 1.00000000 0.0
 0.0 0.0 0.0 0.0 0.0 0.0 0.0 0.0 1.00000000
* P-type functions
    9 8
        234.72883533
        49.78580371
        17.60836016
        4.95241295
        2.00457409
        1.00112539
        .48624011
        .32137472
        .10026651
 -.38584694 0.0 0.0 0.0 0.0 0.0 0.0 0.0
 1.55957831 0.0 0.0 0.0 0.0 0.0 0.0 0.0
 0.0 -1.09384071 0.0 0.0 0.0 0.0 0.0 0.0
 0.0 0.0 1.90268482 0.0 0.0 0.0 0.0 0.0
 0.0 0.0 0.0 1.00000000 0.0 0.0 0.0 0.0
 0.0 0.0 0.0 0.0 1.00000000 0.0 0.0 0.0
 0.0 0.0 0.0 0.0 0.0 1.00000000 0.0 0.0
 0.0 0.0 0.0 0.0 0.0 0.0 1.00000000 0.0
 0.0 0.0 0.0 0.0 0.0 0.0 0.0 1.00000000
* D-type functions
    7 7
        93.42997076
        22.64521042
        7.50088307
        3.88970997
        1.69157871
        .64217413
        .42643521
 1.43993526 0.0 0.0 0.0 0.0 0.0 0.0
 0.0 10.00037481 0.0 0.0 0.0 0.0 0.0
 0.0 0.0 1.36718921 0.0 0.0 0.0 0.0
 0.0 0.0 0.0 1.46871397 0.0 0.0 0.0
 0.0 0.0 0.0 0.0 1.00000000 0.0 0.0
 0.0 0.0 0.0 0.0 0.0 1.00000000 0.0
 0.0 0.0 0.0 0.0 0.0 0.0 1.00000000
* F-type functions
    6 4
        52.74441813
        9.38680902
        5.18640252
        2.04182729
        1.18840865
        .47871875
 -1.47227205 0.0 0.0 0.0
 2.07987216 0.0 0.0 0.0
 2.28637259 0.0 0.0 0.0
 0.0 .60533918 0.0 0.0
 0.0 0.0 1.00000000 0.0
 0.0 0.0 0.0 1.00000000
* G-type functions
    4 4
        16.22055533
        5.38205098
        2.10556163
        .72400155
 1.65149965 0.0 0.0 0.0
 0.0 1.72361852 0.0 0.0
 0.0 0.0 -.27387027 0.0
 0.0 0.0 0.0 1.00000000

/O.TZVP..8s6p5d3f.7s6p4d1f.
 Ref.: Weigend, Häser, Patzelt, Ahlrichs, CPL 294 (1998) 143.
O       (8s6p5d3f) -> [7s6p4d1f]

	8.000000 3
* S-type functions
    8 7
        364.91291000
        77.38709400
        24.30170600
        8.43695450
        3.15279410
        1.57754300
        .78178244
        .31652679
 .58060367 0.0 0.0 0.0 0.0 0.0 0.0
 1.40179849 0.0 0.0 0.0 0.0 0.0 0.0
 0.0 .34994578 0.0 0.0 0.0 0.0 0.0
 0.0 0.0 1.00000000 0.0 0.0 0.0 0.0
 0.0 0.0 0.0 1.00000000 0.0 0.0 0.0
 0.0 0.0 0.0 0.0 1.00000000 0.0 0.0
 0.0 0.0 0.0 0.0 0.0 1.00000000 0.0
 0.0 0.0 0.0 0.0 0.0 0.0 1.00000000
* P-type functions
    6 6
        56.73594800
        14.99721700
        5.64281160
        2.40692198
        1.02640596
        .43769977
 1.06024410 0.0 0.0 0.0 0.0 0.0
 0.0 1.20038258 0.0 0.0 0.0 0.0
 0.0 0.0 1.00000000 0.0 0.0 0.0
 0.0 0.0 0.0 1.00000000 0.0 0.0
 0.0 0.0 0.0 0.0 1.00000000 0.0
 0.0 0.0 0.0 0.0 0.0 1.00000000
* D-type functions
    5 4
        12.44682100
        6.12169170
        2.71029490
        1.15240610
        .41386174
 1.13716995 0.0 0.0 0.0
 .77017590 0.0 0.0 0.0
 0.0 1.00000000 0.0 0.0
 0.0 0.0 1.00000000 0.0
 0.0 0.0 0.0 1.00000000
* F-type functions
    3 1
        4.77935390
        2.32046420
        1.09128040
 .25251741
 1.78671278
 .32923623

/P.TZVP..10s7p7d3f.9s7p6d2f.
 Ref.: Weigend, Häser, Patzelt, Ahlrichs, CPL 294 (1998) 143.
P       (10s7p7d3f) -> [9s7p6d2f]

	15.000000 3
* S-type functions
    10 9
        299.02239127
        105.53104017
        38.45666140
        13.18151043
        7.67135153
        4.03409415
        1.69455023
        .72764573
        .31718400
        .16358306
 1.18280040 0.0 0.0 0.0 0.0 0.0 0.0 0.0 0.0
 .06130569 0.0 0.0 0.0 0.0 0.0 0.0 0.0 0.0
 0.0 -.67542636 0.0 0.0 0.0 0.0 0.0 0.0 0.0
 0.0 0.0 1.00000000 0.0 0.0 0.0 0.0 0.0 0.0
 0.0 0.0 0.0 1.00000000 0.0 0.0 0.0 0.0 0.0
 0.0 0.0 0.0 0.0 1.00000000 0.0 0.0 0.0 0.0
 0.0 0.0 0.0 0.0 0.0 1.00000000 0.0 0.0 0.0
 0.0 0.0 0.0 0.0 0.0 0.0 1.00000000 0.0 0.0
 0.0 0.0 0.0 0.0 0.0 0.0 0.0 1.00000000 0.0
 0.0 0.0 0.0 0.0 0.0 0.0 0.0 0.0 1.00000000
* P-type functions
    7 7
        89.31440733
        12.45122715
        6.18569317
        2.20221854
        .87430756
        .52560287
        .20942777
 -.61569414 0.0 0.0 0.0 0.0 0.0 0.0
 0.0 1.30267720 0.0 0.0 0.0 0.0 0.0
 0.0 0.0 .37332846 0.0 0.0 0.0 0.0
 0.0 0.0 0.0 -.53223460 0.0 0.0 0.0
 0.0 0.0 0.0 0.0 1.00000000 0.0 0.0
 0.0 0.0 0.0 0.0 0.0 .50000186 0.0
 0.0 0.0 0.0 0.0 0.0 0.0 .49999414
* D-type functions
    7 6
        54.52241961
        17.58552162
        5.05626997
        2.78509427
        .86436165
        .48264476
        .20388351
 .63626601 0.0 0.0 0.0 0.0 0.0
 1.54574911 0.0 0.0 0.0 0.0 0.0
 0.0 .48209388 0.0 0.0 0.0 0.0
 0.0 0.0 .11242962 0.0 0.0 0.0
 0.0 0.0 0.0 1.00000000 0.0 0.0
 0.0 0.0 0.0 0.0 1.00000000 0.0
 0.0 0.0 0.0 0.0 0.0 1.00000000
* F-type functions
    3 2
        3.34501984
        .86641104
        .43258777
 -.14052638 0.0
 0.0 1.93653653
 0.0 .47879898

/S.TZVP..10s7p7d3f.9s7p6d2f.
 Ref.: Weigend, Häser, Patzelt, Ahlrichs, CPL 294 (1998) 143.
S       (10s7p7d3f) -> [9s7p6d2f]

	16.000000 3
* S-type functions
    10 9
        345.09162253
        117.44227934
        42.00376580
        15.18206785
        8.82172115
        4.68599401
        2.06400626
        .93603209
        .38913549
        .19781082
 1.48919937 0.0 0.0 0.0 0.0 0.0 0.0 0.0 0.0
 .17581282 0.0 0.0 0.0 0.0 0.0 0.0 0.0 0.0
 0.0 -1.09169378 0.0 0.0 0.0 0.0 0.0 0.0 0.0
 0.0 0.0 1.00000000 0.0 0.0 0.0 0.0 0.0 0.0
 0.0 0.0 0.0 1.00000000 0.0 0.0 0.0 0.0 0.0
 0.0 0.0 0.0 0.0 1.00000000 0.0 0.0 0.0 0.0
 0.0 0.0 0.0 0.0 0.0 1.00000000 0.0 0.0 0.0
 0.0 0.0 0.0 0.0 0.0 0.0 1.00000000 0.0 0.0
 0.0 0.0 0.0 0.0 0.0 0.0 0.0 1.00000000 0.0
 0.0 0.0 0.0 0.0 0.0 0.0 0.0 0.0 1.00000000
* P-type functions
    7 7
        96.68392766
        15.06750080
        7.53375044
        2.62578939
        1.17330564
        .63125153
        .32454873
 -.79923793 0.0 0.0 0.0 0.0 0.0 0.0
 0.0 1.54346023 0.0 0.0 0.0 0.0 0.0
 0.0 0.0 .43808368 0.0 0.0 0.0 0.0
 0.0 0.0 0.0 1.00000000 0.0 0.0 0.0
 0.0 0.0 0.0 0.0 1.00000000 0.0 0.0
 0.0 0.0 0.0 0.0 0.0 1.00000000 0.0
 0.0 0.0 0.0 0.0 0.0 0.0 1.00000000
* D-type functions
    7 6
        61.87847923
        20.17096523
        6.14786234
        3.23802524
        1.11538470
        .60336661
        .24224219
 1.07123562 0.0 0.0 0.0 0.0 0.0
 1.70422469 0.0 0.0 0.0 0.0 0.0
 0.0 .55602682 0.0 0.0 0.0 0.0
 0.0 0.0 1.00000000 0.0 0.0 0.0
 0.0 0.0 0.0 1.00000000 0.0 0.0
 0.0 0.0 0.0 0.0 1.00000000 0.0
 0.0 0.0 0.0 0.0 0.0 1.00000000
* F-type functions
    3 2
        4.12518509
        1.13232061
        .52933986
 -.28704524 0.0
 0.0 2.11288130
 0.0 .58306401

/Sc.TZVP..11s9p7d6f4g.9s8p7d4f4g.
 Ref.: Weigend, Häser, Patzelt, Ahlrichs, CPL 294 (1998) 143.
SC       (11s9p7d6f4g) -> [9s8p7d4f4g]

	21.000000 4
* S-type functions
    11 9
        142.82775400
        63.03256800
        28.36080400
        12.98441200
        6.03639100
        2.84342200
        1.35404300
        .65033400
        .31427600
        .15244000
        .07403200
 -1.00001234 0.0 0.0 0.0 0.0 0.0 0.0 0.0 0.0
 1.18907662 0.0 0.0 0.0 0.0 0.0 0.0 0.0 0.0
 .47567415 0.0 0.0 0.0 0.0 0.0 0.0 0.0 0.0
 0.0 1.00000000 0.0 0.0 0.0 0.0 0.0 0.0 0.0
 0.0 0.0 1.00000000 0.0 0.0 0.0 0.0 0.0 0.0
 0.0 0.0 0.0 1.00000000 0.0 0.0 0.0 0.0 0.0
 0.0 0.0 0.0 0.0 1.00000000 0.0 0.0 0.0 0.0
 0.0 0.0 0.0 0.0 0.0 1.00000000 0.0 0.0 0.0
 0.0 0.0 0.0 0.0 0.0 0.0 1.00000000 0.0 0.0
 0.0 0.0 0.0 0.0 0.0 0.0 0.0 1.00000000 0.0
 0.0 0.0 0.0 0.0 0.0 0.0 0.0 0.0 1.00000000
* P-type functions
    9 8
        105.46661422
        27.12129928
        7.35487922
        2.58067896
        1.55719992
        .85356341
        .37732957
        .16067698
        .08442582
 -.61023691 0.0 0.0 0.0 0.0 0.0 0.0 0.0
 1.53429092 0.0 0.0 0.0 0.0 0.0 0.0 0.0
 0.0 -1.89494750 0.0 0.0 0.0 0.0 0.0 0.0
 0.0 0.0 1.90096641 0.0 0.0 0.0 0.0 0.0
 0.0 0.0 0.0 1.00000000 0.0 0.0 0.0 0.0
 0.0 0.0 0.0 0.0 1.00000000 0.0 0.0 0.0
 0.0 0.0 0.0 0.0 0.0 1.00000000 0.0 0.0
 0.0 0.0 0.0 0.0 0.0 0.0 1.00000000 0.0
 0.0 0.0 0.0 0.0 0.0 0.0 0.0 1.00000000
* D-type functions
    7 7
        47.35448304
        12.51497430
        3.59713449
        2.02795082
        .90115228
        .44411063
        .17769606
 1.83565796 0.0 0.0 0.0 0.0 0.0 0.0
 0.0 10.00026494 0.0 0.0 0.0 0.0 0.0
 0.0 0.0 .26176831 0.0 0.0 0.0 0.0
 0.0 0.0 0.0 1.48413350 0.0 0.0 0.0
 0.0 0.0 0.0 0.0 1.00000000 0.0 0.0
 0.0 0.0 0.0 0.0 0.0 1.00000000 0.0
 0.0 0.0 0.0 0.0 0.0 0.0 1.00000000
* F-type functions
    6 4
        41.47944407
        13.75812055
        5.25835756
        2.26184799
        .95422749
        .43424215
 -.38673926 0.0 0.0 0.0
 -.77565678 0.0 0.0 0.0
 1.28705537 0.0 0.0 0.0
 0.0 2.44433864 0.0 0.0
 0.0 0.0 1.00000000 0.0
 0.0 0.0 0.0 1.00000000
* G-type functions
    4 4
        11.07647530
        2.51627645
        .92626441
        .32478795
 1.20765971 0.0 0.0 0.0
 0.0 1.32980530 0.0 0.0
 0.0 0.0 1.19065989 0.0
 0.0 0.0 0.0 1.00000000

/Si.TZVP..10s7p7d3f.9s7p6d2f.
 Ref.: Weigend, Häser, Patzelt, Ahlrichs, CPL 294 (1998) 143.
SI       (10s7p7d3f) -> [9s7p6d2f]

	14.000000 3
* S-type functions
    10 9
        252.95316000
        93.61980100
        34.90955700
        11.18095300
        6.52098190
        3.38219430
        1.32509420
        .51925936
        .24523251
        .12935530
 1.51090391 0.0 0.0 0.0 0.0 0.0 0.0 0.0 0.0
 -.11996911 0.0 0.0 0.0 0.0 0.0 0.0 0.0 0.0
 0.0 -.50047579 0.0 0.0 0.0 0.0 0.0 0.0 0.0
 0.0 0.0 1.00000000 0.0 0.0 0.0 0.0 0.0 0.0
 0.0 0.0 0.0 1.00000000 0.0 0.0 0.0 0.0 0.0
 0.0 0.0 0.0 0.0 1.00000000 0.0 0.0 0.0 0.0
 0.0 0.0 0.0 0.0 0.0 1.00000000 0.0 0.0 0.0
 0.0 0.0 0.0 0.0 0.0 0.0 1.00000000 0.0 0.0
 0.0 0.0 0.0 0.0 0.0 0.0 0.0 1.00000000 0.0
 0.0 0.0 0.0 0.0 0.0 0.0 0.0 0.0 1.00000000
* P-type functions
    7 7
        81.94488700
        9.83495350
        4.83763590
        1.77864770
        .69339970
        .40788218
        .15632603
 -.64542929 0.0 0.0 0.0 0.0 0.0 0.0
 0.0 1.54270173 0.0 0.0 0.0 0.0 0.0
 0.0 0.0 .33931377 0.0 0.0 0.0 0.0
 0.0 0.0 0.0 -.99311150 0.0 0.0 0.0
 0.0 0.0 0.0 0.0 1.00000000 0.0 0.0
 0.0 0.0 0.0 0.0 0.0 1.00000000 0.0
 0.0 0.0 0.0 0.0 0.0 0.0 1.51139817
* D-type functions
    7 6
        47.16636000
        15.00007800
        3.96467760
        2.33216330
        .65273451
        .36848652
        .15916560
 .78720200 0.0 0.0 0.0 0.0 0.0
 1.80566812 0.0 0.0 0.0 0.0 0.0
 0.0 .70726547 0.0 0.0 0.0 0.0
 0.0 0.0 -.30684335 0.0 0.0 0.0
 0.0 0.0 0.0 1.00000000 0.0 0.0
 0.0 0.0 0.0 0.0 1.00000000 0.0
 0.0 0.0 0.0 0.0 0.0 1.00000000
* F-type functions
    3 2
        2.58191110
        .61244748
        .32303395
 .08379133 0.0
 0.0 1.91327985
 0.0 .30322173

/Ti.TZVP..11s9p7d6f4g.9s8p7d4f4g.
 Ref.: Weigend, Häser, Patzelt, Ahlrichs, CPL 294 (1998) 143.
TI       (11s9p7d6f4g) -> [9s8p7d4f4g]

	22.000000 4
* S-type functions
    11 9
        81.16794300
        34.98399200
        15.77534700
        7.41605500
        3.61970700
        1.82585700
        .94692200
        .50208200
        .27054100
        .14721300
        .08036900
 -.46912465 0.0 0.0 0.0 0.0 0.0 0.0 0.0 0.0
 1.22325389 0.0 0.0 0.0 0.0 0.0 0.0 0.0 0.0
 .16158866 0.0 0.0 0.0 0.0 0.0 0.0 0.0 0.0
 0.0 1.00000000 0.0 0.0 0.0 0.0 0.0 0.0 0.0
 0.0 0.0 1.00000000 0.0 0.0 0.0 0.0 0.0 0.0
 0.0 0.0 0.0 1.00000000 0.0 0.0 0.0 0.0 0.0
 0.0 0.0 0.0 0.0 1.00000000 0.0 0.0 0.0 0.0
 0.0 0.0 0.0 0.0 0.0 1.00000000 0.0 0.0 0.0
 0.0 0.0 0.0 0.0 0.0 0.0 1.00000000 0.0 0.0
 0.0 0.0 0.0 0.0 0.0 0.0 0.0 1.00000000 0.0
 0.0 0.0 0.0 0.0 0.0 0.0 0.0 0.0 1.00000000
* P-type functions
    9 8
        140.68566693
        29.16025208
        9.21972997
        2.70863482
        1.29394937
        .83840938
        .46246825
        .17520882
        .08960892
 -.43677854 0.0 0.0 0.0 0.0 0.0 0.0 0.0
 1.14251493 0.0 0.0 0.0 0.0 0.0 0.0 0.0
 0.0 -1.38341550 0.0 0.0 0.0 0.0 0.0 0.0
 0.0 0.0 1.92366822 0.0 0.0 0.0 0.0 0.0
 0.0 0.0 0.0 1.00000000 0.0 0.0 0.0 0.0
 0.0 0.0 0.0 0.0 1.00000000 0.0 0.0 0.0
 0.0 0.0 0.0 0.0 0.0 1.00000000 0.0 0.0
 0.0 0.0 0.0 0.0 0.0 0.0 1.00000000 0.0
 0.0 0.0 0.0 0.0 0.0 0.0 0.0 1.00000000
* D-type functions
    7 7
        53.91680194
        13.28832517
        3.83975278
        2.24958470
        1.00180703
        .55873773
        .22265435
 2.12793972 0.0 0.0 0.0 0.0 0.0 0.0
 0.0 10.00044281 0.0 0.0 0.0 0.0 0.0
 0.0 0.0 .48195499 0.0 0.0 0.0 0.0
 0.0 0.0 0.0 1.20896060 0.0 0.0 0.0
 0.0 0.0 0.0 0.0 1.00000000 0.0 0.0
 0.0 0.0 0.0 0.0 0.0 1.00000000 0.0
 0.0 0.0 0.0 0.0 0.0 0.0 1.00000000
* F-type functions
    6 4
        37.43250928
        11.36951006
        5.52043108
        2.44994700
        1.12738596
        .50873719
 -.69808072 0.0 0.0 0.0
 -.91447755 0.0 0.0 0.0
 2.09574250 0.0 0.0 0.0
 0.0 2.24643050 0.0 0.0
 0.0 0.0 1.00000000 0.0
 0.0 0.0 0.0 1.00000000
* G-type functions
    4 4
        8.64518110
        2.81214494
        1.09348600
        .42265377
 1.06907815 0.0 0.0 0.0
 0.0 1.35436482 0.0 0.0
 0.0 0.0 -.07083341 0.0
 0.0 0.0 0.0 1.00000000

/V.TZVP..11s9p7d6f4g.9s8p7d4f4g.
 Ref.: Weigend, Häser, Patzelt, Ahlrichs, CPL 294 (1998) 143.
V       (11s9p7d6f4g) -> [9s8p7d4f4g]

	23.000000 4
* S-type functions
    11 9
        88.60643600
        38.35869400
        17.33703800
        8.15256700
        3.97283100
        1.99735500
        1.03090700
        .54333700
        .29075500
        .15703600
        .08507800
 -.46912392 0.0 0.0 0.0 0.0 0.0 0.0 0.0 0.0
 1.22325390 0.0 0.0 0.0 0.0 0.0 0.0 0.0 0.0
 .16158860 0.0 0.0 0.0 0.0 0.0 0.0 0.0 0.0
 0.0 1.00000000 0.0 0.0 0.0 0.0 0.0 0.0 0.0
 0.0 0.0 1.00000000 0.0 0.0 0.0 0.0 0.0 0.0
 0.0 0.0 0.0 1.00000000 0.0 0.0 0.0 0.0 0.0
 0.0 0.0 0.0 0.0 1.00000000 0.0 0.0 0.0 0.0
 0.0 0.0 0.0 0.0 0.0 1.00000000 0.0 0.0 0.0
 0.0 0.0 0.0 0.0 0.0 0.0 1.00000000 0.0 0.0
 0.0 0.0 0.0 0.0 0.0 0.0 0.0 1.00000000 0.0
 0.0 0.0 0.0 0.0 0.0 0.0 0.0 0.0 1.00000000
* P-type functions
    9 8
        132.74312715
        34.52761823
        10.59526933
        2.96514297
        1.07179737
        .71838849
        .40781378
        .19529787
        .09252965
 -.38589676 0.0 0.0 0.0 0.0 0.0 0.0 0.0
 1.55957847 0.0 0.0 0.0 0.0 0.0 0.0 0.0
 0.0 -1.55866496 0.0 0.0 0.0 0.0 0.0 0.0
 0.0 0.0 2.55839482 0.0 0.0 0.0 0.0 0.0
 0.0 0.0 0.0 1.00000000 0.0 0.0 0.0 0.0
 0.0 0.0 0.0 0.0 1.00000000 0.0 0.0 0.0
 0.0 0.0 0.0 0.0 0.0 1.00000000 0.0 0.0
 0.0 0.0 0.0 0.0 0.0 0.0 1.00000000 0.0
 0.0 0.0 0.0 0.0 0.0 0.0 0.0 1.00000000
* D-type functions
    7 7
        60.75909407
        14.49645128
        4.45080980
        2.35469269
        1.21483127
        .61664272
        .26251813
 1.91741241 0.0 0.0 0.0 0.0 0.0 0.0
 0.0 10.00036781 0.0 0.0 0.0 0.0 0.0
 0.0 0.0 .88000574 0.0 0.0 0.0 0.0
 0.0 0.0 0.0 1.39691577 0.0 0.0 0.0
 0.0 0.0 0.0 0.0 1.00000000 0.0 0.0
 0.0 0.0 0.0 0.0 0.0 1.00000000 0.0
 0.0 0.0 0.0 0.0 0.0 0.0 1.00000000
* F-type functions
    6 4
        35.81159601
        9.91104995
        4.48575566
        2.27266764
        1.06194949
        .43263343
 -1.09332867 0.0 0.0 0.0
 .08542952 0.0 0.0 0.0
 2.32024648 0.0 0.0 0.0
 0.0 1.61088373 0.0 0.0
 0.0 0.0 1.00000000 0.0
 0.0 0.0 0.0 1.00000000
* G-type functions
    4 4
        9.61027332
        3.14545873
        1.30654826
        .47603298
 1.14981350 0.0 0.0 0.0
 0.0 1.42408240 0.0 0.0
 0.0 0.0 -.21289120 0.0
 0.0 0.0 0.0 1.00000000

/Zn.TZVP..11s9p7d6f4g.9s8p7d4f4g.
 Ref.: Weigend, Häser, Patzelt, Ahlrichs, CPL 294 (1998) 143.
ZN       (11s9p7d6f4g) -> [9s8p7d4f4g]

	30.000000 4
* S-type functions
    11 9
        91.33008800
        43.09840000
        20.99096500
        10.52165500
        5.41065700
        2.84477300
        1.52366000
        .82811000
        .45487200
        .25146300
        .13931300
 .19671369 0.0 0.0 0.0 0.0 0.0 0.0 0.0 0.0
 1.11340742 0.0 0.0 0.0 0.0 0.0 0.0 0.0 0.0
 -.87865104 0.0 0.0 0.0 0.0 0.0 0.0 0.0 0.0
 0.0 1.00000000 0.0 0.0 0.0 0.0 0.0 0.0 0.0
 0.0 0.0 1.00000000 0.0 0.0 0.0 0.0 0.0 0.0
 0.0 0.0 0.0 1.00000000 0.0 0.0 0.0 0.0 0.0
 0.0 0.0 0.0 0.0 1.00000000 0.0 0.0 0.0 0.0
 0.0 0.0 0.0 0.0 0.0 1.00000000 0.0 0.0 0.0
 0.0 0.0 0.0 0.0 0.0 0.0 1.00000000 0.0 0.0
 0.0 0.0 0.0 0.0 0.0 0.0 0.0 1.00000000 0.0
 0.0 0.0 0.0 0.0 0.0 0.0 0.0 0.0 1.00000000
* P-type functions
    9 8
        267.44963494
        54.30951352
        21.47168893
        5.99624760
        2.46312598
        1.30876616
        .72176110
        .38071186
        .21106915
 -.38582947 0.0 0.0 0.0 0.0 0.0 0.0 0.0
 1.55957840 0.0 0.0 0.0 0.0 0.0 0.0 0.0
 0.0 -1.09978619 0.0 0.0 0.0 0.0 0.0 0.0
 0.0 0.0 1.92006033 0.0 0.0 0.0 0.0 0.0
 0.0 0.0 0.0 1.00000000 0.0 0.0 0.0 0.0
 0.0 0.0 0.0 0.0 1.00000000 0.0 0.0 0.0
 0.0 0.0 0.0 0.0 0.0 1.00000000 0.0 0.0
 0.0 0.0 0.0 0.0 0.0 0.0 1.00000000 0.0
 0.0 0.0 0.0 0.0 0.0 0.0 0.0 1.00000000
* D-type functions
    7 7
        113.48213546
        27.64086475
        9.38065260
        5.03129368
        2.22613088
        1.07485357
        .51868045
 1.38496173 0.0 0.0 0.0 0.0 0.0 0.0
 0.0 10.00026281 0.0 0.0 0.0 0.0 0.0
 0.0 0.0 1.07846033 0.0 0.0 0.0 0.0
 0.0 0.0 0.0 1.19918717 0.0 0.0 0.0
 0.0 0.0 0.0 0.0 1.00000000 0.0 0.0
 0.0 0.0 0.0 0.0 0.0 1.00000000 0.0
 0.0 0.0 0.0 0.0 0.0 0.0 -.00000021
* F-type functions
    6 4
        63.10972955
        11.80274976
        6.61680555
        2.60184729
        1.51058053
        .58261457
 -1.28127898 0.0 0.0 0.0
 1.46364920 0.0 0.0 0.0
 2.14749660 0.0 0.0 0.0
 0.0 .42243383 0.0 0.0
 0.0 0.0 1.00000000 0.0
 0.0 0.0 0.0 1.00000000
* G-type functions
    4 4
        20.31001232
        6.80773757
        2.71947475
        .95114673
 1.41428470 0.0 0.0 0.0
 0.0 1.42925630 0.0 0.0
 0.0 0.0 -.26678046 0.0
 0.0 0.0 0.0 1.00000000

